# vtk DataFile Version 3.0
vtk output
ASCII
DATASET POLYDATA
POINTS 600 float
-10 -15 -10 -10 -15 10 -10 15 -10 
-10 15 10 10 -15 -10 10 -15 10 
10 15 -10 10 15 10 -10 -15 -10 
-10 -15 10 10 -15 -10 10 -15 10 
-10 15 -10 -10 15 10 10 15 -10 
10 15 10 -10 -15 -10 10 -15 -10 
-10 15 -10 10 15 -10 -10 -15 10 
10 -15 10 -10 15 10 10 15 10 
-10 -15 -10 -10 -15 0 -10 0 -10 
-10 0 0 0 -15 -10 0 -15 0 
0 0 -10 0 0 0 -10 -15 -10 
-10 -15 0 0 -15 -10 0 -15 0 
-10 0 -10 -10 0 0 0 0 -10 
0 0 0 -10 -15 -10 0 -15 -10 
-10 0 -10 0 0 -10 -10 -15 0 
0 -15 0 -10 0 0 0 0 0 
0 -15 -10 0 -15 0 0 0 -10 
0 0 0 10 -15 -10 10 -15 0 
10 0 -10 10 0 0 0 -15 -10 
0 -15 0 10 -15 -10 10 -15 0 
0 0 -10 0 0 0 10 0 -10 
10 0 0 0 -15 -10 10 -15 -10 
0 0 -10 10 0 -10 0 -15 0 
10 -15 0 0 0 0 10 0 0 
-10 0 -10 -10 0 0 -10 15 -10 
-10 15 0 0 0 -10 0 0 0 
0 15 -10 0 15 0 -10 0 -10 
-10 0 0 0 0 -10 0 0 0 
-10 15 -10 -10 15 0 0 15 -10 
0 15 0 -10 0 -10 0 0 -10 
-10 15 -10 0 15 -10 -10 0 0 
0 0 0 -10 15 0 0 15 0 
0 0 -10 0 0 0 0 15 -10 
0 15 0 10 0 -10 10 0 0 
10 15 -10 10 15 0 0 0 -10 
0 0 0 10 0 -10 10 0 0 
0 15 -10 0 15 0 10 15 -10 
10 15 0 0 0 -10 10 0 -10 
0 15 -10 10 15 -10 0 0 0 
10 0 0 0 15 0 10 15 0 
-10 -15 0 -10 -15 10 -10 0 0 
-10 0 10 0 -15 0 0 -15 10 
0 0 0 0 0 10 -10 -15 0 
-10 -15 10 0 -15 0 0 -15 10 
-10 0 0 -10 0 10 0 0 0 
0 0 10 -10 -15 0 0 -15 0 
-10 0 0 0 0 0 -10 -15 10 
0 -15 10 -10 0 10 0 0 10 
0 -15 0 0 -15 10 0 0 0 
0 0 10 10 -15 0 10 -15 10 
10 0 0 10 0 10 0 -15 0 
0 -15 10 10 -15 0 10 -15 10 
0 0 0 0 0 10 10 0 0 
10 0 10 0 -15 0 10 -15 0 
0 0 0 10 0 0 0 -15 10 
10 -15 10 0 0 10 10 0 10 
-10 0 0 -10 0 10 -10 15 0 
-10 15 10 0 0 0 0 0 10 
0 15 0 0 15 10 -10 0 0 
-10 0 10 0 0 0 0 0 10 
-10 15 0 -10 15 10 0 15 0 
0 15 10 -10 0 0 0 0 0 
-10 15 0 0 15 0 -10 0 10 
0 0 10 -10 15 10 0 15 10 
0 0 0 0 0 10 0 15 0 
0 15 10 10 0 0 10 0 10 
10 15 0 10 15 10 0 0 0 
0 0 10 10 0 0 10 0 10 
0 15 0 0 15 10 10 15 0 
10 15 10 0 0 0 10 0 0 
0 15 0 10 15 0 0 0 10 
10 0 10 0 15 10 10 15 10 
0 -15 -10 0 -15 -5 0 -7.5 -10 
0 -7.5 -5 5 -15 -10 5 -15 -5 
5 -7.5 -10 5 -7.5 -5 0 -15 -10 
0 -15 -5 5 -15 -10 5 -15 -5 
0 -7.5 -10 0 -7.5 -5 5 -7.5 -10 
5 -7.5 -5 0 -15 -10 5 -15 -10 
0 -7.5 -10 5 -7.5 -10 0 -15 -5 
5 -15 -5 0 -7.5 -5 5 -7.5 -5 
5 -15 -10 5 -15 -5 5 -7.5 -10 
5 -7.5 -5 10 -15 -10 10 -15 -5 
10 -7.5 -10 10 -7.5 -5 5 -15 -10 
5 -15 -5 10 -15 -10 10 -15 -5 
5 -7.5 -10 5 -7.5 -5 10 -7.5 -10 
10 -7.5 -5 5 -15 -10 10 -15 -10 
5 -7.5 -10 10 -7.5 -10 5 -15 -5 
10 -15 -5 5 -7.5 -5 10 -7.5 -5 
0 -7.5 -10 0 -7.5 -5 0 0 -10 
0 0 -5 5 -7.5 -10 5 -7.5 -5 
5 0 -10 5 0 -5 0 -7.5 -10 
0 -7.5 -5 5 -7.5 -10 5 -7.5 -5 
0 0 -10 0 0 -5 5 0 -10 
5 0 -5 0 -7.5 -10 5 -7.5 -10 
0 0 -10 5 0 -10 0 -7.5 -5 
5 -7.5 -5 0 0 -5 5 0 -5 
5 -7.5 -10 5 -7.5 -5 5 0 -10 
5 0 -5 10 -7.5 -10 10 -7.5 -5 
10 0 -10 10 0 -5 5 -7.5 -10 
5 -7.5 -5 10 -7.5 -10 10 -7.5 -5 
5 0 -10 5 0 -5 10 0 -10 
10 0 -5 5 -7.5 -10 10 -7.5 -10 
5 0 -10 10 0 -10 5 -7.5 -5 
10 -7.5 -5 5 0 -5 10 0 -5 
0 -15 -5 0 -15 0 0 -7.5 -5 
0 -7.5 0 5 -15 -5 5 -15 0 
5 -7.5 -5 5 -7.5 0 0 -15 -5 
0 -15 0 5 -15 -5 5 -15 0 
0 -7.5 -5 0 -7.5 0 5 -7.5 -5 
5 -7.5 0 0 -15 -5 5 -15 -5 
0 -7.5 -5 5 -7.5 -5 0 -15 0 
5 -15 0 0 -7.5 0 5 -7.5 0 
5 -15 -5 5 -15 0 5 -7.5 -5 
5 -7.5 0 10 -15 -5 10 -15 0 
10 -7.5 -5 10 -7.5 0 5 -15 -5 
5 -15 0 10 -15 -5 10 -15 0 
5 -7.5 -5 5 -7.5 0 10 -7.5 -5 
10 -7.5 0 5 -15 -5 10 -15 -5 
5 -7.5 -5 10 -7.5 -5 5 -15 0 
10 -15 0 5 -7.5 0 10 -7.5 0 
0 -7.5 -5 0 -7.5 0 0 0 -5 
0 0 0 5 -7.5 -5 5 -7.5 0 
5 0 -5 5 0 0 0 -7.5 -5 
0 -7.5 0 5 -7.5 -5 5 -7.5 0 
0 0 -5 0 0 0 5 0 -5 
5 0 0 0 -7.5 -5 5 -7.5 -5 
0 0 -5 5 0 -5 0 -7.5 0 
5 -7.5 0 0 0 0 5 0 0 
5 -7.5 -5 5 -7.5 0 5 0 -5 
5 0 0 10 -7.5 -5 10 -7.5 0 
10 0 -5 10 0 0 5 -7.5 -5 
5 -7.5 0 10 -7.5 -5 10 -7.5 0 
5 0 -5 5 0 0 10 0 -5 
10 0 0 5 -7.5 -5 10 -7.5 -5 
5 0 -5 10 0 -5 5 -7.5 0 
10 -7.5 0 5 0 0 10 0 0 
0 -15 -5 0 -15 -2.5 0 -11.25 -5 
0 -11.25 -2.5 2.5 -15 -5 2.5 -15 -2.5 
2.5 -11.25 -5 2.5 -11.25 -2.5 0 -15 -5 
0 -15 -2.5 2.5 -15 -5 2.5 -15 -2.5 
0 -11.25 -5 0 -11.25 -2.5 2.5 -11.25 -5 
2.5 -11.25 -2.5 0 -15 -5 2.5 -15 -5 
0 -11.25 -5 2.5 -11.25 -5 0 -15 -2.5 
2.5 -15 -2.5 0 -11.25 -2.5 2.5 -11.25 -2.5 
2.5 -15 -5 2.5 -15 -2.5 2.5 -11.25 -5 
2.5 -11.25 -2.5 5 -15 -5 5 -15 -2.5 
5 -11.25 -5 5 -11.25 -2.5 2.5 -15 -5 
2.5 -15 -2.5 5 -15 -5 5 -15 -2.5 
2.5 -11.25 -5 2.5 -11.25 -2.5 5 -11.25 -5 
5 -11.25 -2.5 2.5 -15 -5 5 -15 -5 
2.5 -11.25 -5 5 -11.25 -5 2.5 -15 -2.5 
5 -15 -2.5 2.5 -11.25 -2.5 5 -11.25 -2.5 
0 -11.25 -5 0 -11.25 -2.5 0 -7.5 -5 
0 -7.5 -2.5 2.5 -11.25 -5 2.5 -11.25 -2.5 
2.5 -7.5 -5 2.5 -7.5 -2.5 0 -11.25 -5 
0 -11.25 -2.5 2.5 -11.25 -5 2.5 -11.25 -2.5 
0 -7.5 -5 0 -7.5 -2.5 2.5 -7.5 -5 
2.5 -7.5 -2.5 0 -11.25 -5 2.5 -11.25 -5 
0 -7.5 -5 2.5 -7.5 -5 0 -11.25 -2.5 
2.5 -11.25 -2.5 0 -7.5 -2.5 2.5 -7.5 -2.5 
2.5 -11.25 -5 2.5 -11.25 -2.5 2.5 -7.5 -5 
2.5 -7.5 -2.5 5 -11.25 -5 5 -11.25 -2.5 
5 -7.5 -5 5 -7.5 -2.5 2.5 -11.25 -5 
2.5 -11.25 -2.5 5 -11.25 -5 5 -11.25 -2.5 
2.5 -7.5 -5 2.5 -7.5 -2.5 5 -7.5 -5 
5 -7.5 -2.5 2.5 -11.25 -5 5 -11.25 -5 
2.5 -7.5 -5 5 -7.5 -5 2.5 -11.25 -2.5 
5 -11.25 -2.5 2.5 -7.5 -2.5 5 -7.5 -2.5 
0 -15 -2.5 0 -15 0 0 -11.25 -2.5 
0 -11.25 0 2.5 -15 -2.5 2.5 -15 0 
2.5 -11.25 -2.5 2.5 -11.25 0 0 -15 -2.5 
0 -15 0 2.5 -15 -2.5 2.5 -15 0 
0 -11.25 -2.5 0 -11.25 0 2.5 -11.25 -2.5 
2.5 -11.25 0 0 -15 -2.5 2.5 -15 -2.5 
0 -11.25 -2.5 2.5 -11.25 -2.5 0 -15 0 
2.5 -15 0 0 -11.25 0 2.5 -11.25 0 
2.5 -15 -2.5 2.5 -15 0 2.5 -11.25 -2.5 
2.5 -11.25 0 5 -15 -2.5 5 -15 0 
5 -11.25 -2.5 5 -11.25 0 2.5 -15 -2.5 
2.5 -15 0 5 -15 -2.5 5 -15 0 
2.5 -11.25 -2.5 2.5 -11.25 0 5 -11.25 -2.5 
5 -11.25 0 2.5 -15 -2.5 5 -15 -2.5 
2.5 -11.25 -2.5 5 -11.25 -2.5 2.5 -15 0 
5 -15 0 2.5 -11.25 0 5 -11.25 0 
0 -11.25 -2.5 0 -11.25 0 0 -7.5 -2.5 
0 -7.5 0 2.5 -11.25 -2.5 2.5 -11.25 0 
2.5 -7.5 -2.5 2.5 -7.5 0 0 -11.25 -2.5 
0 -11.25 0 2.5 -11.25 -2.5 2.5 -11.25 0 
0 -7.5 -2.5 0 -7.5 0 2.5 -7.5 -2.5 
2.5 -7.5 0 0 -11.25 -2.5 2.5 -11.25 -2.5 
0 -7.5 -2.5 2.5 -7.5 -2.5 0 -11.25 0 
2.5 -11.25 0 0 -7.5 0 2.5 -7.5 0 
2.5 -11.25 -2.5 2.5 -11.25 0 2.5 -7.5 -2.5 
2.5 -7.5 0 5 -11.25 -2.5 5 -11.25 0 
5 -7.5 -2.5 5 -7.5 0 2.5 -11.25 -2.5 
2.5 -11.25 0 5 -11.25 -2.5 5 -11.25 0 
2.5 -7.5 -2.5 2.5 -7.5 0 5 -7.5 -2.5 
5 -7.5 0 2.5 -11.25 -2.5 5 -11.25 -2.5 
2.5 -7.5 -2.5 5 -7.5 -2.5 2.5 -11.25 0 
5 -11.25 0 2.5 -7.5 0 5 -7.5 0 

POLYGONS 150 750
4 0 1 3 2 
4 4 6 7 5 
4 8 10 11 9 
4 12 13 15 14 
4 16 18 19 17 
4 20 21 23 22 
4 24 25 27 26 
4 28 30 31 29 
4 32 34 35 33 
4 36 37 39 38 
4 40 42 43 41 
4 44 45 47 46 
4 48 49 51 50 
4 52 54 55 53 
4 56 58 59 57 
4 60 61 63 62 
4 64 66 67 65 
4 68 69 71 70 
4 72 73 75 74 
4 76 78 79 77 
4 80 82 83 81 
4 84 85 87 86 
4 88 90 91 89 
4 92 93 95 94 
4 96 97 99 98 
4 100 102 103 101 
4 104 106 107 105 
4 108 109 111 110 
4 112 114 115 113 
4 116 117 119 118 
4 120 121 123 122 
4 124 126 127 125 
4 128 130 131 129 
4 132 133 135 134 
4 136 138 139 137 
4 140 141 143 142 
4 144 145 147 146 
4 148 150 151 149 
4 152 154 155 153 
4 156 157 159 158 
4 160 162 163 161 
4 164 165 167 166 
4 168 169 171 170 
4 172 174 175 173 
4 176 178 179 177 
4 180 181 183 182 
4 184 186 187 185 
4 188 189 191 190 
4 192 193 195 194 
4 196 198 199 197 
4 200 202 203 201 
4 204 205 207 206 
4 208 210 211 209 
4 212 213 215 214 
4 216 217 219 218 
4 220 222 223 221 
4 224 226 227 225 
4 228 229 231 230 
4 232 234 235 233 
4 236 237 239 238 
4 240 241 243 242 
4 244 246 247 245 
4 248 250 251 249 
4 252 253 255 254 
4 256 258 259 257 
4 260 261 263 262 
4 264 265 267 266 
4 268 270 271 269 
4 272 274 275 273 
4 276 277 279 278 
4 280 282 283 281 
4 284 285 287 286 
4 288 289 291 290 
4 292 294 295 293 
4 296 298 299 297 
4 300 301 303 302 
4 304 306 307 305 
4 308 309 311 310 
4 312 313 315 314 
4 316 318 319 317 
4 320 322 323 321 
4 324 325 327 326 
4 328 330 331 329 
4 332 333 335 334 
4 336 337 339 338 
4 340 342 343 341 
4 344 346 347 345 
4 348 349 351 350 
4 352 354 355 353 
4 356 357 359 358 
4 360 361 363 362 
4 364 366 367 365 
4 368 370 371 369 
4 372 373 375 374 
4 376 378 379 377 
4 380 381 383 382 
4 384 385 387 386 
4 388 390 391 389 
4 392 394 395 393 
4 396 397 399 398 
4 400 402 403 401 
4 404 405 407 406 
4 408 409 411 410 
4 412 414 415 413 
4 416 418 419 417 
4 420 421 423 422 
4 424 426 427 425 
4 428 429 431 430 
4 432 433 435 434 
4 436 438 439 437 
4 440 442 443 441 
4 444 445 447 446 
4 448 450 451 449 
4 452 453 455 454 
4 456 457 459 458 
4 460 462 463 461 
4 464 466 467 465 
4 468 469 471 470 
4 472 474 475 473 
4 476 477 479 478 
4 480 481 483 482 
4 484 486 487 485 
4 488 490 491 489 
4 492 493 495 494 
4 496 498 499 497 
4 500 501 503 502 
4 504 505 507 506 
4 508 510 511 509 
4 512 514 515 513 
4 516 517 519 518 
4 520 522 523 521 
4 524 525 527 526 
4 528 529 531 530 
4 532 534 535 533 
4 536 538 539 537 
4 540 541 543 542 
4 544 546 547 545 
4 548 549 551 550 
4 552 553 555 554 
4 556 558 559 557 
4 560 562 563 561 
4 564 565 567 566 
4 568 570 571 569 
4 572 573 575 574 
4 576 577 579 578 
4 580 582 583 581 
4 584 586 587 585 
4 588 589 591 590 
4 592 594 595 593 
4 596 597 599 598 

CELL_DATA 150
SCALARS INID int
LOOKUP_TABLE default
0 0 0 0 0 0 1 1 1 
1 1 1 2 2 2 2 2 2 
3 3 3 3 3 3 4 4 4 
4 4 4 5 5 5 5 5 5 
6 6 6 6 6 6 7 7 7 
7 7 7 8 8 8 8 8 8 
9 9 9 9 9 9 10 10 10 
10 10 10 11 11 11 11 11 11 
12 12 12 12 12 12 13 13 13 
13 13 13 14 14 14 14 14 14 
15 15 15 15 15 15 16 16 16 
16 16 16 17 17 17 17 17 17 
18 18 18 18 18 18 19 19 19 
19 19 19 20 20 20 20 20 20 
21 21 21 21 21 21 22 22 22 
22 22 22 23 23 23 23 23 23 
24 24 24 24 24 24 
POINT_DATA 600
NORMALS Normals float
-1 0 0 -1 0 0 -1 0 0 
-1 0 0 1 0 0 1 0 0 
1 0 0 1 0 0 0 -1 0 
0 -1 0 0 -1 0 0 -1 0 
0 1 0 0 1 0 0 1 0 
0 1 0 0 0 -1 0 0 -1 
0 0 -1 0 0 -1 0 0 1 
0 0 1 0 0 1 0 0 1 
-1 0 0 -1 0 0 -1 0 0 
-1 0 0 1 0 0 1 0 0 
1 0 0 1 0 0 0 -1 0 
0 -1 0 0 -1 0 0 -1 0 
0 1 0 0 1 0 0 1 0 
0 1 0 0 0 -1 0 0 -1 
0 0 -1 0 0 -1 0 0 1 
0 0 1 0 0 1 0 0 1 
-1 0 0 -1 0 0 -1 0 0 
-1 0 0 1 0 0 1 0 0 
1 0 0 1 0 0 0 -1 0 
0 -1 0 0 -1 0 0 -1 0 
0 1 0 0 1 0 0 1 0 
0 1 0 0 0 -1 0 0 -1 
0 0 -1 0 0 -1 0 0 1 
0 0 1 0 0 1 0 0 1 
-1 0 0 -1 0 0 -1 0 0 
-1 0 0 1 0 0 1 0 0 
1 0 0 1 0 0 0 -1 0 
0 -1 0 0 -1 0 0 -1 0 
0 1 0 0 1 0 0 1 0 
0 1 0 0 0 -1 0 0 -1 
0 0 -1 0 0 -1 0 0 1 
0 0 1 0 0 1 0 0 1 
-1 0 0 -1 0 0 -1 0 0 
-1 0 0 1 0 0 1 0 0 
1 0 0 1 0 0 0 -1 0 
0 -1 0 0 -1 0 0 -1 0 
0 1 0 0 1 0 0 1 0 
0 1 0 0 0 -1 0 0 -1 
0 0 -1 0 0 -1 0 0 1 
0 0 1 0 0 1 0 0 1 
-1 0 0 -1 0 0 -1 0 0 
-1 0 0 1 0 0 1 0 0 
1 0 0 1 0 0 0 -1 0 
0 -1 0 0 -1 0 0 -1 0 
0 1 0 0 1 0 0 1 0 
0 1 0 0 0 -1 0 0 -1 
0 0 -1 0 0 -1 0 0 1 
0 0 1 0 0 1 0 0 1 
-1 0 0 -1 0 0 -1 0 0 
-1 0 0 1 0 0 1 0 0 
1 0 0 1 0 0 0 -1 0 
0 -1 0 0 -1 0 0 -1 0 
0 1 0 0 1 0 0 1 0 
0 1 0 0 0 -1 0 0 -1 
0 0 -1 0 0 -1 0 0 1 
0 0 1 0 0 1 0 0 1 
-1 0 0 -1 0 0 -1 0 0 
-1 0 0 1 0 0 1 0 0 
1 0 0 1 0 0 0 -1 0 
0 -1 0 0 -1 0 0 -1 0 
0 1 0 0 1 0 0 1 0 
0 1 0 0 0 -1 0 0 -1 
0 0 -1 0 0 -1 0 0 1 
0 0 1 0 0 1 0 0 1 
-1 0 0 -1 0 0 -1 0 0 
-1 0 0 1 0 0 1 0 0 
1 0 0 1 0 0 0 -1 0 
0 -1 0 0 -1 0 0 -1 0 
0 1 0 0 1 0 0 1 0 
0 1 0 0 0 -1 0 0 -1 
0 0 -1 0 0 -1 0 0 1 
0 0 1 0 0 1 0 0 1 
-1 0 0 -1 0 0 -1 0 0 
-1 0 0 1 0 0 1 0 0 
1 0 0 1 0 0 0 -1 0 
0 -1 0 0 -1 0 0 -1 0 
0 1 0 0 1 0 0 1 0 
0 1 0 0 0 -1 0 0 -1 
0 0 -1 0 0 -1 0 0 1 
0 0 1 0 0 1 0 0 1 
-1 0 0 -1 0 0 -1 0 0 
-1 0 0 1 0 0 1 0 0 
1 0 0 1 0 0 0 -1 0 
0 -1 0 0 -1 0 0 -1 0 
0 1 0 0 1 0 0 1 0 
0 1 0 0 0 -1 0 0 -1 
0 0 -1 0 0 -1 0 0 1 
0 0 1 0 0 1 0 0 1 
-1 0 0 -1 0 0 -1 0 0 
-1 0 0 1 0 0 1 0 0 
1 0 0 1 0 0 0 -1 0 
0 -1 0 0 -1 0 0 -1 0 
0 1 0 0 1 0 0 1 0 
0 1 0 0 0 -1 0 0 -1 
0 0 -1 0 0 -1 0 0 1 
0 0 1 0 0 1 0 0 1 
-1 0 0 -1 0 0 -1 0 0 
-1 0 0 1 0 0 1 0 0 
1 0 0 1 0 0 0 -1 0 
0 -1 0 0 -1 0 0 -1 0 
0 1 0 0 1 0 0 1 0 
0 1 0 0 0 -1 0 0 -1 
0 0 -1 0 0 -1 0 0 1 
0 0 1 0 0 1 0 0 1 
-1 0 0 -1 0 0 -1 0 0 
-1 0 0 1 0 0 1 0 0 
1 0 0 1 0 0 0 -1 0 
0 -1 0 0 -1 0 0 -1 0 
0 1 0 0 1 0 0 1 0 
0 1 0 0 0 -1 0 0 -1 
0 0 -1 0 0 -1 0 0 1 
0 0 1 0 0 1 0 0 1 
-1 0 0 -1 0 0 -1 0 0 
-1 0 0 1 0 0 1 0 0 
1 0 0 1 0 0 0 -1 0 
0 -1 0 0 -1 0 0 -1 0 
0 1 0 0 1 0 0 1 0 
0 1 0 0 0 -1 0 0 -1 
0 0 -1 0 0 -1 0 0 1 
0 0 1 0 0 1 0 0 1 
-1 0 0 -1 0 0 -1 0 0 
-1 0 0 1 0 0 1 0 0 
1 0 0 1 0 0 0 -1 0 
0 -1 0 0 -1 0 0 -1 0 
0 1 0 0 1 0 0 1 0 
0 1 0 0 0 -1 0 0 -1 
0 0 -1 0 0 -1 0 0 1 
0 0 1 0 0 1 0 0 1 
-1 0 0 -1 0 0 -1 0 0 
-1 0 0 1 0 0 1 0 0 
1 0 0 1 0 0 0 -1 0 
0 -1 0 0 -1 0 0 -1 0 
0 1 0 0 1 0 0 1 0 
0 1 0 0 0 -1 0 0 -1 
0 0 -1 0 0 -1 0 0 1 
0 0 1 0 0 1 0 0 1 
-1 0 0 -1 0 0 -1 0 0 
-1 0 0 1 0 0 1 0 0 
1 0 0 1 0 0 0 -1 0 
0 -1 0 0 -1 0 0 -1 0 
0 1 0 0 1 0 0 1 0 
0 1 0 0 0 -1 0 0 -1 
0 0 -1 0 0 -1 0 0 1 
0 0 1 0 0 1 0 0 1 
-1 0 0 -1 0 0 -1 0 0 
-1 0 0 1 0 0 1 0 0 
1 0 0 1 0 0 0 -1 0 
0 -1 0 0 -1 0 0 -1 0 
0 1 0 0 1 0 0 1 0 
0 1 0 0 0 -1 0 0 -1 
0 0 -1 0 0 -1 0 0 1 
0 0 1 0 0 1 0 0 1 
-1 0 0 -1 0 0 -1 0 0 
-1 0 0 1 0 0 1 0 0 
1 0 0 1 0 0 0 -1 0 
0 -1 0 0 -1 0 0 -1 0 
0 1 0 0 1 0 0 1 0 
0 1 0 0 0 -1 0 0 -1 
0 0 -1 0 0 -1 0 0 1 
0 0 1 0 0 1 0 0 1 
-1 0 0 -1 0 0 -1 0 0 
-1 0 0 1 0 0 1 0 0 
1 0 0 1 0 0 0 -1 0 
0 -1 0 0 -1 0 0 -1 0 
0 1 0 0 1 0 0 1 0 
0 1 0 0 0 -1 0 0 -1 
0 0 -1 0 0 -1 0 0 1 
0 0 1 0 0 1 0 0 1 
-1 0 0 -1 0 0 -1 0 0 
-1 0 0 1 0 0 1 0 0 
1 0 0 1 0 0 0 -1 0 
0 -1 0 0 -1 0 0 -1 0 
0 1 0 0 1 0 0 1 0 
0 1 0 0 0 -1 0 0 -1 
0 0 -1 0 0 -1 0 0 1 
0 0 1 0 0 1 0 0 1 
-1 0 0 -1 0 0 -1 0 0 
-1 0 0 1 0 0 1 0 0 
1 0 0 1 0 0 0 -1 0 
0 -1 0 0 -1 0 0 -1 0 
0 1 0 0 1 0 0 1 0 
0 1 0 0 0 -1 0 0 -1 
0 0 -1 0 0 -1 0 0 1 
0 0 1 0 0 1 0 0 1 
-1 0 0 -1 0 0 -1 0 0 
-1 0 0 1 0 0 1 0 0 
1 0 0 1 0 0 0 -1 0 
0 -1 0 0 -1 0 0 -1 0 
0 1 0 0 1 0 0 1 0 
0 1 0 0 0 -1 0 0 -1 
0 0 -1 0 0 -1 0 0 1 
0 0 1 0 0 1 0 0 1 
-1 0 0 -1 0 0 -1 0 0 
-1 0 0 1 0 0 1 0 0 
1 0 0 1 0 0 0 -1 0 
0 -1 0 0 -1 0 0 -1 0 
0 1 0 0 1 0 0 1 0 
0 1 0 0 0 -1 0 0 -1 
0 0 -1 0 0 -1 0 0 1 
0 0 1 0 0 1 0 0 1 

TEXTURE_COORDINATES TCoords 2 float
-9.5 -14.5 10.5 -14.5 -9.5 15.5 10.5 15.5 9.5 
-14.5 -10.5 -14.5 9.5 15.5 -10.5 15.5 9.5 9.5 
9.5 -10.5 -10.5 9.5 -10.5 -10.5 -9.5 9.5 -9.5 
-10.5 10.5 9.5 10.5 -10.5 9.5 -14.5 -10.5 -14.5 
9.5 15.5 -10.5 15.5 -9.5 -14.5 10.5 -14.5 -9.5 
15.5 10.5 15.5 -4.5 -7 5.5 -7 -4.5 8 
5.5 8 4.5 -7 -5.5 -7 4.5 8 -5.5 
8 4.5 4.5 4.5 -5.5 -5.5 4.5 -5.5 -5.5 
-4.5 4.5 -4.5 -5.5 5.5 4.5 5.5 -5.5 4.5 
-7 -5.5 -7 4.5 8 -5.5 8 -4.5 -7 
5.5 -7 -4.5 8 5.5 8 -4.5 -7 5.5 
-7 -4.5 8 5.5 8 4.5 -7 -5.5 -7 
4.5 8 -5.5 8 4.5 4.5 4.5 -5.5 -5.5 
4.5 -5.5 -5.5 -4.5 4.5 -4.5 -5.5 5.5 4.5 
5.5 -5.5 4.5 -7 -5.5 -7 4.5 8 -5.5 
8 -4.5 -7 5.5 -7 -4.5 8 5.5 8 
-4.5 -7 5.5 -7 -4.5 8 5.5 8 4.5 
-7 -5.5 -7 4.5 8 -5.5 8 4.5 4.5 
4.5 -5.5 -5.5 4.5 -5.5 -5.5 -4.5 4.5 -4.5 
-5.5 5.5 4.5 5.5 -5.5 4.5 -7 -5.5 -7 
4.5 8 -5.5 8 -4.5 -7 5.5 -7 -4.5 
8 5.5 8 -4.5 -7 5.5 -7 -4.5 8 
5.5 8 4.5 -7 -5.5 -7 4.5 8 -5.5 
8 4.5 4.5 4.5 -5.5 -5.5 4.5 -5.5 -5.5 
-4.5 4.5 -4.5 -5.5 5.5 4.5 5.5 -5.5 4.5 
-7 -5.5 -7 4.5 8 -5.5 8 -4.5 -7 
5.5 -7 -4.5 8 5.5 8 -4.5 -7 5.5 
-7 -4.5 8 5.5 8 4.5 -7 -5.5 -7 
4.5 8 -5.5 8 4.5 4.5 4.5 -5.5 -5.5 
4.5 -5.5 -5.5 -4.5 4.5 -4.5 -5.5 5.5 4.5 
5.5 -5.5 4.5 -7 -5.5 -7 4.5 8 -5.5 
8 -4.5 -7 5.5 -7 -4.5 8 5.5 8 
-4.5 -7 5.5 -7 -4.5 8 5.5 8 4.5 
-7 -5.5 -7 4.5 8 -5.5 8 4.5 4.5 
4.5 -5.5 -5.5 4.5 -5.5 -5.5 -4.5 4.5 -4.5 
-5.5 5.5 4.5 5.5 -5.5 4.5 -7 -5.5 -7 
4.5 8 -5.5 8 -4.5 -7 5.5 -7 -4.5 
8 5.5 8 -4.5 -7 5.5 -7 -4.5 8 
5.5 8 4.5 -7 -5.5 -7 4.5 8 -5.5 
8 4.5 4.5 4.5 -5.5 -5.5 4.5 -5.5 -5.5 
-4.5 4.5 -4.5 -5.5 5.5 4.5 5.5 -5.5 4.5 
-7 -5.5 -7 4.5 8 -5.5 8 -4.5 -7 
5.5 -7 -4.5 8 5.5 8 -4.5 -7 5.5 
-7 -4.5 8 5.5 8 4.5 -7 -5.5 -7 
4.5 8 -5.5 8 4.5 4.5 4.5 -5.5 -5.5 
4.5 -5.5 -5.5 -4.5 4.5 -4.5 -5.5 5.5 4.5 
5.5 -5.5 4.5 -7 -5.5 -7 4.5 8 -5.5 
8 -4.5 -7 5.5 -7 -4.5 8 5.5 8 
-2 -3.25 3 -3.25 -2 4.25 3 4.25 2 
-3.25 -3 -3.25 2 4.25 -3 4.25 2 2 
2 -3 -3 2 -3 -3 -2 2 -2 
-3 3 2 3 -3 2 -3.25 -3 -3.25 
2 4.25 -3 4.25 -2 -3.25 3 -3.25 -2 
4.25 3 4.25 -2 -3.25 3 -3.25 -2 4.25 
3 4.25 2 -3.25 -3 -3.25 2 4.25 -3 
4.25 2 2 2 -3 -3 2 -3 -3 
-2 2 -2 -3 3 2 3 -3 2 
-3.25 -3 -3.25 2 4.25 -3 4.25 -2 -3.25 
3 -3.25 -2 4.25 3 4.25 -2 -3.25 3 
-3.25 -2 4.25 3 4.25 2 -3.25 -3 -3.25 
2 4.25 -3 4.25 2 2 2 -3 -3 
2 -3 -3 -2 2 -2 -3 3 2 
3 -3 2 -3.25 -3 -3.25 2 4.25 -3 
4.25 -2 -3.25 3 -3.25 -2 4.25 3 4.25 
-2 -3.25 3 -3.25 -2 4.25 3 4.25 2 
-3.25 -3 -3.25 2 4.25 -3 4.25 2 2 
2 -3 -3 2 -3 -3 -2 2 -2 
-3 3 2 3 -3 2 -3.25 -3 -3.25 
2 4.25 -3 4.25 -2 -3.25 3 -3.25 -2 
4.25 3 4.25 -2 -3.25 3 -3.25 -2 4.25 
3 4.25 2 -3.25 -3 -3.25 2 4.25 -3 
4.25 2 2 2 -3 -3 2 -3 -3 
-2 2 -2 -3 3 2 3 -3 2 
-3.25 -3 -3.25 2 4.25 -3 4.25 -2 -3.25 
3 -3.25 -2 4.25 3 4.25 -2 -3.25 3 
-3.25 -2 4.25 3 4.25 2 -3.25 -3 -3.25 
2 4.25 -3 4.25 2 2 2 -3 -3 
2 -3 -3 -2 2 -2 -3 3 2 
3 -3 2 -3.25 -3 -3.25 2 4.25 -3 
4.25 -2 -3.25 3 -3.25 -2 4.25 3 4.25 
-2 -3.25 3 -3.25 -2 4.25 3 4.25 2 
-3.25 -3 -3.25 2 4.25 -3 4.25 2 2 
2 -3 -3 2 -3 -3 -2 2 -2 
-3 3 2 3 -3 2 -3.25 -3 -3.25 
2 4.25 -3 4.25 -2 -3.25 3 -3.25 -2 
4.25 3 4.25 -2 -3.25 3 -3.25 -2 4.25 
3 4.25 2 -3.25 -3 -3.25 2 4.25 -3 
4.25 2 2 2 -3 -3 2 -3 -3 
-2 2 -2 -3 3 2 3 -3 2 
-3.25 -3 -3.25 2 4.25 -3 4.25 -2 -3.25 
3 -3.25 -2 4.25 3 4.25 -0.75 -1.375 1.75 
-1.375 -0.75 2.375 1.75 2.375 0.75 -1.375 -1.75 -1.375 
0.75 2.375 -1.75 2.375 0.75 0.75 0.75 -1.75 -1.75 
0.75 -1.75 -1.75 -0.75 0.75 -0.75 -1.75 1.75 0.75 
1.75 -1.75 0.75 -1.375 -1.75 -1.375 0.75 2.375 -1.75 
2.375 -0.75 -1.375 1.75 -1.375 -0.75 2.375 1.75 2.375 
-0.75 -1.375 1.75 -1.375 -0.75 2.375 1.75 2.375 0.75 
-1.375 -1.75 -1.375 0.75 2.375 -1.75 2.375 0.75 0.75 
0.75 -1.75 -1.75 0.75 -1.75 -1.75 -0.75 0.75 -0.75 
-1.75 1.75 0.75 1.75 -1.75 0.75 -1.375 -1.75 -1.375 
0.75 2.375 -1.75 2.375 -0.75 -1.375 1.75 -1.375 -0.75 
2.375 1.75 2.375 -0.75 -1.375 1.75 -1.375 -0.75 2.375 
1.75 2.375 0.75 -1.375 -1.75 -1.375 0.75 2.375 -1.75 
2.375 0.75 0.75 0.75 -1.75 -1.75 0.75 -1.75 -1.75 
-0.75 0.75 -0.75 -1.75 1.75 0.75 1.75 -1.75 0.75 
-1.375 -1.75 -1.375 0.75 2.375 -1.75 2.375 -0.75 -1.375 
1.75 -1.375 -0.75 2.375 1.75 2.375 -0.75 -1.375 1.75 
-1.375 -0.75 2.375 1.75 2.375 0.75 -1.375 -1.75 -1.375 
0.75 2.375 -1.75 2.375 0.75 0.75 0.75 -1.75 -1.75 
0.75 -1.75 -1.75 -0.75 0.75 -0.75 -1.75 1.75 0.75 
1.75 -1.75 0.75 -1.375 -1.75 -1.375 0.75 2.375 -1.75 
2.375 -0.75 -1.375 1.75 -1.375 -0.75 2.375 1.75 2.375 
-0.75 -1.375 1.75 -1.375 -0.75 2.375 1.75 2.375 0.75 
-1.375 -1.75 -1.375 0.75 2.375 -1.75 2.375 0.75 0.75 
0.75 -1.75 -1.75 0.75 -1.75 -1.75 -0.75 0.75 -0.75 
-1.75 1.75 0.75 1.75 -1.75 0.75 -1.375 -1.75 -1.375 
0.75 2.375 -1.75 2.375 -0.75 -1.375 1.75 -1.375 -0.75 
2.375 1.75 2.375 -0.75 -1.375 1.75 -1.375 -0.75 2.375 
1.75 2.375 0.75 -1.375 -1.75 -1.375 0.75 2.375 -1.75 
2.375 0.75 0.75 0.75 -1.75 -1.75 0.75 -1.75 -1.75 
-0.75 0.75 -0.75 -1.75 1.75 0.75 1.75 -1.75 0.75 
-1.375 -1.75 -1.375 0.75 2.375 -1.75 2.375 -0.75 -1.375 
1.75 -1.375 -0.75 2.375 1.75 2.375 -0.75 -1.375 1.75 
-1.375 -0.75 2.375 1.75 2.375 0.75 -1.375 -1.75 -1.375 
0.75 2.375 -1.75 2.375 0.75 0.75 0.75 -1.75 -1.75 
0.75 -1.75 -1.75 -0.75 0.75 -0.75 -1.75 1.75 0.75 
1.75 -1.75 0.75 -1.375 -1.75 -1.375 0.75 2.375 -1.75 
2.375 -0.75 -1.375 1.75 -1.375 -0.75 2.375 1.75 2.375 
-0.75 -1.375 1.75 -1.375 -0.75 2.375 1.75 2.375 0.75 
-1.375 -1.75 -1.375 0.75 2.375 -1.75 2.375 0.75 0.75 
0.75 -1.75 -1.75 0.75 -1.75 -1.75 -0.75 0.75 -0.75 
-1.75 1.75 0.75 1.75 -1.75 0.75 -1.375 -1.75 -1.375 
0.75 2.375 -1.75 2.375 -0.75 -1.375 1.75 -1.375 -0.75 
2.375 1.75 2.375 
