# vtk DataFile Version 3.0
vtk output
ASCII
DATASET POLYDATA
POINTS 1890 float
0 0 1 0 0 -1 0.164595 0 0.986361 
0.324699 0 0.945817 0.475947 0 0.879474 0.614213 0 0.789141 
0.735724 0 0.677282 0.837166 0 0.546948 0.915773 0 0.401695 
0.9694 0 0.245485 0.996584 0 0.0825793 0.996584 0 -0.0825794 
0.9694 0 -0.245486 0.915773 0 -0.401695 0.837166 0 -0.546948 
0.735724 0 -0.677282 0.614213 0 -0.789141 0.475947 0 -0.879474 
0.324699 0 -0.945817 0.164595 0 -0.986361 0.156539 0.0508625 0.986361 
0.308808 0.100338 0.945817 0.452653 0.147076 0.879474 0.584151 0.189802 0.789141 
0.699715 0.227351 0.677282 0.796193 0.258699 0.546948 0.870952 0.28299 0.401695 
0.921954 0.299561 0.245485 0.947808 0.307962 0.0825793 0.947808 0.307962 -0.0825794 
0.921954 0.299561 -0.245486 0.870952 0.28299 -0.401695 0.796193 0.258699 -0.546948 
0.699715 0.227351 -0.677282 0.584151 0.189802 -0.789141 0.452653 0.147076 -0.879474 
0.308807 0.100338 -0.945817 0.156539 0.0508625 -0.986361 0.13316 0.0967463 0.986361 
0.262687 0.190854 0.945817 0.38505 0.279755 0.879474 0.496909 0.361025 0.789141 
0.595213 0.432448 0.677282 0.677282 0.492074 0.546948 0.740876 0.538278 0.401695 
0.784261 0.569799 0.245485 0.806254 0.585778 0.0825793 0.806254 0.585778 -0.0825794 
0.784261 0.569799 -0.245486 0.740876 0.538278 -0.401695 0.677282 0.492074 -0.546948 
0.595213 0.432448 -0.677282 0.496908 0.361025 -0.789141 0.385049 0.279755 -0.879474 
0.262687 0.190854 -0.945817 0.13316 0.0967462 -0.986361 0.0967463 0.13316 0.986361 
0.190854 0.262687 0.945817 0.279755 0.38505 0.879474 0.361025 0.496909 0.789141 
0.432448 0.595213 0.677282 0.492074 0.677282 0.546948 0.538278 0.740876 0.401695 
0.569799 0.784261 0.245485 0.585778 0.806254 0.0825793 0.585778 0.806254 -0.0825794 
0.569799 0.784261 -0.245486 0.538278 0.740876 -0.401695 0.492074 0.677282 -0.546948 
0.432448 0.595213 -0.677282 0.361025 0.496908 -0.789141 0.279755 0.385049 -0.879474 
0.190854 0.262687 -0.945817 0.0967462 0.13316 -0.986361 0.0508625 0.156539 0.986361 
0.100338 0.308808 0.945817 0.147076 0.452653 0.879474 0.189802 0.584151 0.789141 
0.227351 0.699715 0.677282 0.258699 0.796193 0.546948 0.28299 0.870952 0.401695 
0.299561 0.921954 0.245485 0.307962 0.947808 0.0825793 0.307962 0.947808 -0.0825794 
0.299561 0.921954 -0.245486 0.282989 0.870952 -0.401695 0.258699 0.796193 -0.546948 
0.227351 0.699715 -0.677282 0.189802 0.584151 -0.789141 0.147076 0.452653 -0.879474 
0.100338 0.308807 -0.945817 0.0508625 0.156539 -0.986361 -7.19466e-09 0.164595 0.986361 
-1.41931e-08 0.324699 0.945817 -2.08043e-08 0.475947 0.879474 -2.68481e-08 0.614213 0.789141 
-3.21595e-08 0.735724 0.677282 -3.65937e-08 0.837166 0.546948 -4.00297e-08 0.915773 0.401695 
-4.23738e-08 0.9694 0.245485 -4.35621e-08 0.996584 0.0825793 -4.35621e-08 0.996584 -0.0825794 
-4.23738e-08 0.9694 -0.245486 -4.00297e-08 0.915773 -0.401695 -3.65937e-08 0.837166 -0.546948 
-3.21595e-08 0.735724 -0.677282 -2.68481e-08 0.614213 -0.789141 -2.08043e-08 0.475947 -0.879474 
-1.41931e-08 0.324699 -0.945817 -7.19465e-09 0.164595 -0.986361 -0.0508625 0.156539 0.986361 
-0.100338 0.308808 0.945817 -0.147076 0.452653 0.879474 -0.189802 0.584151 0.789141 
-0.227351 0.699715 0.677282 -0.258699 0.796193 0.546948 -0.28299 0.870952 0.401695 
-0.299561 0.921954 0.245485 -0.307962 0.947808 0.0825793 -0.307962 0.947808 -0.0825794 
-0.299561 0.921954 -0.245486 -0.28299 0.870952 -0.401695 -0.258699 0.796193 -0.546948 
-0.227351 0.699715 -0.677282 -0.189802 0.584151 -0.789141 -0.147076 0.452653 -0.879474 
-0.100338 0.308807 -0.945817 -0.0508625 0.156539 -0.986361 -0.0967463 0.13316 0.986361 
-0.190854 0.262687 0.945817 -0.279755 0.38505 0.879474 -0.361025 0.496909 0.789141 
-0.432448 0.595213 0.677282 -0.492074 0.677282 0.546948 -0.538278 0.740876 0.401695 
-0.569799 0.784261 0.245485 -0.585778 0.806254 0.0825793 -0.585778 0.806254 -0.0825794 
-0.569799 0.784261 -0.245486 -0.538278 0.740876 -0.401695 -0.492074 0.677282 -0.546948 
-0.432448 0.595213 -0.677282 -0.361025 0.496908 -0.789141 -0.279755 0.385049 -0.879474 
-0.190854 0.262687 -0.945817 -0.0967462 0.13316 -0.986361 -0.13316 0.0967463 0.986361 
-0.262687 0.190854 0.945817 -0.38505 0.279755 0.879474 -0.496909 0.361025 0.789141 
-0.595213 0.432448 0.677282 -0.677282 0.492074 0.546948 -0.740876 0.538278 0.401695 
-0.784261 0.569799 0.245485 -0.806254 0.585778 0.0825793 -0.806254 0.585778 -0.0825794 
-0.784261 0.569799 -0.245486 -0.740876 0.538278 -0.401695 -0.677282 0.492074 -0.546948 
-0.595213 0.432448 -0.677282 -0.496909 0.361025 -0.789141 -0.385049 0.279755 -0.879474 
-0.262687 0.190853 -0.945817 -0.13316 0.0967462 -0.986361 -0.156539 0.0508625 0.986361 
-0.308808 0.100338 0.945817 -0.452653 0.147076 0.879474 -0.584151 0.189802 0.789141 
-0.699715 0.227351 0.677282 -0.796193 0.258699 0.546948 -0.870952 0.282989 0.401695 
-0.921954 0.299561 0.245485 -0.947808 0.307961 0.0825793 -0.947808 0.307961 -0.0825794 
-0.921954 0.299561 -0.245486 -0.870952 0.282989 -0.401695 -0.796193 0.258699 -0.546948 
-0.699715 0.227351 -0.677282 -0.584151 0.189802 -0.789141 -0.452653 0.147076 -0.879474 
-0.308807 0.100338 -0.945817 -0.156539 0.0508625 -0.986361 -0.164595 -1.43893e-08 0.986361 
-0.324699 -2.83861e-08 0.945817 -0.475947 -4.16086e-08 0.879474 -0.614213 -5.36962e-08 0.789141 
-0.735724 -6.4319e-08 0.677282 -0.837166 -7.31874e-08 0.546948 -0.915773 -8.00595e-08 0.401695 
-0.9694 -8.47477e-08 0.245485 -0.996584 -8.71242e-08 0.0825793 -0.996584 -8.71242e-08 -0.0825794 
-0.9694 -8.47477e-08 -0.245486 -0.915773 -8.00595e-08 -0.401695 -0.837166 -7.31874e-08 -0.546948 
-0.735724 -6.4319e-08 -0.677282 -0.614213 -5.36962e-08 -0.789141 -0.475947 -4.16086e-08 -0.879474 
-0.324699 -2.83861e-08 -0.945817 -0.164595 -1.43893e-08 -0.986361 -0.156539 -0.0508625 0.986361 
-0.308808 -0.100338 0.945817 -0.452653 -0.147076 0.879474 -0.584151 -0.189802 0.789141 
-0.699715 -0.227351 0.677282 -0.796193 -0.258699 0.546948 -0.870952 -0.28299 0.401695 
-0.921954 -0.299561 0.245485 -0.947808 -0.307962 0.0825793 -0.947808 -0.307962 -0.0825794 
-0.921954 -0.299561 -0.245486 -0.870952 -0.28299 -0.401695 -0.796193 -0.258699 -0.546948 
-0.699715 -0.227351 -0.677282 -0.584151 -0.189802 -0.789141 -0.452653 -0.147076 -0.879474 
-0.308807 -0.100338 -0.945817 -0.156539 -0.0508625 -0.986361 -0.13316 -0.0967463 0.986361 
-0.262687 -0.190854 0.945817 -0.38505 -0.279755 0.879474 -0.496908 -0.361025 0.789141 
-0.595213 -0.432448 0.677282 -0.677282 -0.492074 0.546948 -0.740876 -0.538278 0.401695 
-0.784261 -0.569799 0.245485 -0.806254 -0.585778 0.0825793 -0.806254 -0.585778 -0.0825794 
-0.784261 -0.569799 -0.245486 -0.740876 -0.538278 -0.401695 -0.677282 -0.492074 -0.546948 
-0.595213 -0.432448 -0.677282 -0.496908 -0.361025 -0.789141 -0.385049 -0.279755 -0.879474 
-0.262687 -0.190854 -0.945817 -0.13316 -0.0967462 -0.986361 -0.0967463 -0.13316 0.986361 
-0.190854 -0.262687 0.945817 -0.279755 -0.38505 0.879474 -0.361025 -0.496909 0.789141 
-0.432448 -0.595213 0.677282 -0.492074 -0.677282 0.546948 -0.538278 -0.740876 0.401695 
-0.569799 -0.784261 0.245485 -0.585778 -0.806254 0.0825793 -0.585778 -0.806254 -0.0825794 
-0.569799 -0.784261 -0.245486 -0.538278 -0.740876 -0.401695 -0.492074 -0.677282 -0.546948 
-0.432448 -0.595213 -0.677282 -0.361025 -0.496909 -0.789141 -0.279755 -0.38505 -0.879474 
-0.190853 -0.262687 -0.945817 -0.0967462 -0.13316 -0.986361 -0.0508625 -0.156539 0.986361 
-0.100338 -0.308808 0.945817 -0.147076 -0.452653 0.879474 -0.189802 -0.584151 0.789141 
-0.227351 -0.699715 0.677282 -0.258699 -0.796193 0.546948 -0.282989 -0.870952 0.401695 
-0.299561 -0.921955 0.245485 -0.307961 -0.947808 0.0825793 -0.307961 -0.947808 -0.0825794 
-0.299561 -0.921954 -0.245486 -0.282989 -0.870952 -0.401695 -0.258699 -0.796193 -0.546948 
-0.227351 -0.699715 -0.677282 -0.189802 -0.584151 -0.789141 -0.147076 -0.452653 -0.879474 
-0.100338 -0.308807 -0.945817 -0.0508625 -0.156539 -0.986361 2.1584e-08 -0.164595 0.986361 
4.25792e-08 -0.324699 0.945817 6.2413e-08 -0.475947 0.879474 8.05443e-08 -0.614213 0.789141 
9.64785e-08 -0.735724 0.677282 1.09781e-07 -0.837166 0.546948 1.20089e-07 -0.915773 0.401695 
1.27121e-07 -0.9694 0.245485 1.30686e-07 -0.996584 0.0825793 1.30686e-07 -0.996584 -0.0825794 
1.27121e-07 -0.9694 -0.245486 1.20089e-07 -0.915773 -0.401695 1.09781e-07 -0.837166 -0.546948 
9.64785e-08 -0.735724 -0.677282 8.05443e-08 -0.614213 -0.789141 6.2413e-08 -0.475947 -0.879474 
4.25792e-08 -0.324699 -0.945817 2.1584e-08 -0.164595 -0.986361 0.0508626 -0.156539 0.986361 
0.100338 -0.308808 0.945817 0.147076 -0.452653 0.879474 0.189802 -0.584151 0.789141 
0.227351 -0.699715 0.677282 0.258699 -0.796193 0.546948 0.28299 -0.870952 0.401695 
0.299561 -0.921954 0.245485 0.307962 -0.947808 0.0825793 0.307962 -0.947808 -0.0825794 
0.299561 -0.921954 -0.245486 0.28299 -0.870952 -0.401695 0.258699 -0.796193 -0.546948 
0.227351 -0.699715 -0.677282 0.189802 -0.584151 -0.789141 0.147076 -0.452653 -0.879474 
0.100338 -0.308807 -0.945817 0.0508625 -0.156539 -0.986361 0.0967463 -0.13316 0.986361 
0.190854 -0.262687 0.945817 0.279755 -0.385049 0.879474 0.361025 -0.496908 0.789141 
0.432448 -0.595213 0.677282 0.492074 -0.677282 0.546948 0.538278 -0.740876 0.401695 
0.569799 -0.784261 0.245485 0.585778 -0.806254 0.0825793 0.585778 -0.806254 -0.0825794 
0.569799 -0.784261 -0.245486 0.538278 -0.740876 -0.401695 0.492074 -0.677282 -0.546948 
0.432448 -0.595213 -0.677282 0.361025 -0.496908 -0.789141 0.279755 -0.385049 -0.879474 
0.190854 -0.262687 -0.945817 0.0967462 -0.13316 -0.986361 0.13316 -0.0967463 0.986361 
0.262687 -0.190854 0.945817 0.38505 -0.279755 0.879474 0.496909 -0.361025 0.789141 
0.595213 -0.432448 0.677282 0.677282 -0.492074 0.546948 0.740876 -0.538278 0.401695 
0.784261 -0.569799 0.245485 0.806254 -0.585778 0.0825793 0.806254 -0.585778 -0.0825794 
0.784261 -0.569799 -0.245486 0.740876 -0.538278 -0.401695 0.677282 -0.492074 -0.546948 
0.595213 -0.432448 -0.677282 0.496909 -0.361025 -0.789141 0.38505 -0.279755 -0.879474 
[...]
CELL_DATA 3622
SCALARS LNID int
LOOKUP_TABLE default
1 1 1 1 1 1 1 1 1 
1 1 1 1 1 1 1 1 1 
1 1 1 1 1 1 1 1 1 
1 1 1 1 1 1 1 1 1 
1 1 1 1 1 1 1 1 1 
1 1 1 1 1 1 1 1 1 
1 1 1 1 1 1 1 1 1 
1 1 1 1 1 1 1 1 1 
1 1 1 1 1 1 1 1 1 
1 1 1 1 1 1 1 1 1 
1 1 1 1 1 1 1 1 1 
1 1 1 1 1 1 1 1 1 
1 1 1 1 1 1 1 1 1 
1 1 1 1 1 1 1 1 1 
1 1 1 1 1 1 1 1 1 
1 1 1 1 1 1 1 1 1 
1 1 1 1 1 1 1 1 1 
1 1 1 1 1 1 1 1 1 
1 1 1 1 1 1 1 1 1 
1 1 1 1 1 1 1 1 1 
1 1 1 1 1 1 1 1 1 
1 1 1 1 1 1 1 1 1 
1 1 1 1 1 1 1 1 1 
1 1 1 1 1 1 1 1 1 
1 1 1 1 1 1 1 1 1 
1 1 1 1 1 1 1 1 1 
1 1 1 1 1 1 1 1 1 
1 1 1 1 1 1 1 1 1 
1 1 1 1 1 1 1 1 1 
1 1 1 1 1 1 1 1 1 
1 1 1 1 1 1 1 1 1 
1 1 1 1 1 1 1 1 1 
1 1 1 1 1 1 1 1 1 
1 1 1 1 1 1 1 1 1 
1 1 1 1 1 1 1 1 1 
1 1 1 1 1 1 1 1 1 
1 1 1 1 1 1 1 1 1 
1 1 1 1 1 1 1 1 1 
1 1 1 1 1 1 1 1 1 
1 1 1 1 1 1 1 1 1 
1 1 1 1 1 1 1 1 1 
1 1 1 1 1 1 1 1 1 
1 1 1 1 1 1 1 1 1 
1 1 1 1 1 1 1 1 1 
1 1 1 1 1 1 1 1 1 
1 1 1 1 1 1 1 1 1 
1 1 1 1 1 1 1 1 1 
1 1 1 1 1 1 1 1 1 
1 1 1 1 1 1 1 1 1 
1 1 1 1 1 1 1 1 1 
1 1 1 1 1 1 1 1 1 
1 1 1 1 1 1 1 1 1 
1 1 1 1 1 1 1 1 1 
1 1 1 1 1 1 1 1 1 
1 1 1 1 1 1 1 1 1 
1 1 1 1 1 1 1 1 1 
1 1 1 1 1 1 1 1 1 
1 1 1 1 1 1 1 1 1 
1 1 1 1 1 1 1 1 1 
1 1 1 1 1 1 1 1 1 
1 1 1 1 1 1 1 1 1 
1 1 1 1 1 1 1 1 1 
1 1 1 1 1 1 1 1 1 
1 1 1 1 1 1 1 1 1 
1 1 1 1 1 1 1 1 1 
1 1 1 1 1 1 1 1 1 
1 1 1 1 1 1 1 1 1 
1 1 1 1 1 1 1 1 1 
1 1 1 1 1 1 1 1 1 
1 1 1 1 1 1 1 1 1 
1 1 1 1 1 1 1 1 1 
1 1 1 1 1 1 1 1 1 
1 1 1 1 1 1 1 1 1 
1 1 1 1 1 1 1 1 1 
1 1 1 1 1 1 1 1 1 
1 1 1 1 1 1 1 1 1 
1 1 1 1 1 1 1 1 1 
1 1 1 1 1 1 1 1 1 
1 1 1 1 1 1 1 1 1 
1 1 1 1 1 1 1 1 1 
0 0 0 0 0 0 0 0 0 
0 0 0 0 0 0 0 0 0 
0 0 0 0 0 0 0 0 0 
0 0 0 0 0 0 0 0 0 
0 0 0 0 0 0 0 0 0 
0 0 0 0 0 0 0 0 0 
0 0 0 0 0 0 0 0 0 
0 0 0 0 0 0 0 0 0 
0 0 0 0 0 0 0 0 0 
0 0 0 0 0 0 0 0 0 
0 0 0 0 0 0 0 0 0 
0 0 0 0 0 0 0 0 0 
0 0 0 0 0 0 0 0 0 
0 0 0 0 0 0 0 0 0 
0 0 0 0 0 0 0 0 0 
0 0 0 0 0 0 0 0 0 
0 0 0 0 0 0 0 0 0 
0 0 0 0 0 0 0 0 0 
0 0 0 0 0 0 0 0 0 
0 0 0 0 0 0 0 0 0 
0 0 0 0 0 0 0 0 0 
0 0 0 0 0 0 0 0 0 
0 0 0 0 0 0 0 0 0 
0 0 0 0 0 0 0 0 0 
0 0 0 0 0 0 0 0 0 
0 0 0 0 0 0 0 0 0 
0 0 0 0 0 0 0 0 0 
0 0 0 0 0 0 0 0 0 
0 0 0 0 0 0 0 0 0 
0 0 0 0 0 0 0 0 0 
0 0 0 0 0 0 0 0 0 
0 0 0 0 0 0 0 0 0 
0 0 0 0 0 0 0 0 0 
0 0 0 0 0 0 0 0 0 
0 0 0 0 0 0 0 0 0 
0 0 0 0 0 0 0 0 0 
0 0 0 0 0 0 0 0 0 
0 0 0 0 0 0 0 0 0 
0 0 0 0 0 0 0 0 0 
0 0 0 0 0 0 0 0 0 
0 0 0 0 0 0 0 0 0 
0 0 0 0 0 0 0 0 0 
0 0 0 0 0 0 0 0 0 
0 0 0 0 0 0 0 0 0 
0 0 0 0 0 0 0 0 0 
0 0 0 0 0 0 0 0 0 
0 0 0 0 0 0 0 0 0 
0 0 0 0 0 0 0 0 0 
0 0 0 0 0 0 0 0 0 
0 0 0 0 0 0 0 0 0 
0 0 0 0 0 0 0 0 0 
0 0 0 0 0 0 0 0 0 
0 0 0 0 0 0 0 0 0 
0 0 0 0 0 0 0 0 0 
0 0 0 0 0 0 0 0 0 
0 0 0 0 0 0 0 0 0 
0 0 0 0 0 0 0 0 0 
0 0 0 0 0 0 0 0 0 
0 0 0 0 0 0 0 0 0 
0 0 0 0 0 0 0 0 0 
0 0 0 0 0 0 0 0 0 
0 0 0 0 0 0 0 0 0 
0 0 0 0 0 0 0 0 0 
0 0 0 0 0 0 0 0 0 
0 0 0 0 0 0 0 0 0 
0 0 0 0 0 0 0 0 0 
0 0 0 0 0 0 0 0 0 
0 0 0 0 0 0 0 0 0 
0 0 0 0 0 0 0 0 0 
0 0 0 0 0 0 0 0 0 
0 0 0 0 0 0 0 0 0 
0 0 0 0 0 0 0 0 0 
0 0 0 0 0 0 0 0 0 
0 0 0 0 0 0 0 0 0 
0 0 0 0 0 0 0 0 0 
0 0 0 0 0 0 0 0 0 
0 0 0 0 0 0 0 0 0 
0 0 0 0 0 0 0 0 0 
0 0 0 0 0 0 0 0 0 
0 0 0 0 0 0 0 0 0 
2 2 2 2 2 2 2 2 2 
2 2 2 2 2 2 2 2 2 
2 2 2 2 3 3 3 3 3 
3 3 3 3 3 3 3 3 3 
3 3 3 3 3 3 3 3 3 
3 3 3 3 3 3 3 3 3 
3 3 3 3 3 3 3 3 3 
3 3 3 3 3 3 3 3 3 
3 3 3 3 3 3 3 3 3 
3 3 3 3 3 3 3 3 3 
3 3 3 3 3 3 3 3 3 
3 3 3 3 3 3 3 3 3 
3 3 3 3 3 3 3 3 3 
3 3 3 3 3 3 3 3 3 
3 3 3 3 3 3 3 3 3 
3 3 3 3 3 3 3 3 3 
3 3 3 3 3 3 3 3 3 
3 3 3 3 3 3 3 3 3 
3 3 3 3 3 3 3 3 3 
3 3 3 3 3 3 3 3 3 
3 3 3 3 3 3 3 3 3 
3 3 3 3 3 3 3 3 3 
3 3 3 3 3 3 3 3 3 
3 3 3 3 3 3 3 3 3 
3 3 3 3 3 3 3 3 3 
3 3 3 3 3 3 3 3 3 
3 3 3 3 3 3 3 3 3 
3 3 3 3 3 3 3 3 3 
3 3 3 3 3 3 3 3 3 
3 3 3 3 3 3 3 3 3 
3 3 3 3 3 3 3 3 3 
3 3 3 3 3 3 3 3 3 
3 3 3 3 3 3 3 3 3 
3 3 3 3 3 3 3 3 3 
3 3 3 3 3 3 3 3 3 
3 3 3 3 3 3 3 3 3 
3 3 3 3 3 3 3 3 3 
3 3 3 3 3 3 3 3 3 
3 3 3 3 3 3 3 3 3 
3 3 3 3 3 3 3 3 3 
3 3 3 3 3 3 3 3 3 
3 3 3 3 3 3 3 3 3 
3 3 3 3 3 3 3 3 3 
3 3 3 3 3 3 3 3 3 
3 3 3 3 3 3 3 3 3 
3 3 3 3 3 3 3 3 3 
3 3 3 3 3 3 3 3 3 
3 3 3 3 3 3 3 3 3 
3 3 3 3 3 3 3 3 3 
3 3 3 3 3 3 3 3 3 
3 3 3 3 3 3 3 3 3 
3 3 3 3 3 3 3 3 3 
3 3 3 3 3 3 3 3 3 
3 3 3 3 3 3 3 3 3 
3 3 3 3 3 3 3 3 3 
3 3 3 3 3 3 3 3 3 
3 3 3 3 3 3 3 3 3 
3 3 3 3 3 3 3 3 3 
3 3 3 3 3 3 3 3 3 
3 3 3 3 3 3 3 3 3 
3 3 3 3 3 3 3 3 3 
3 3 3 3 3 3 3 3 3 
3 3 3 3 3 3 3 3 3 
3 3 3 3 3 3 3 3 3 
3 3 3 3 3 3 3 3 3 
3 3 3 3 3 3 3 3 3 
3 3 3 3 3 3 3 3 3 
3 3 3 3 3 3 3 3 3 
3 3 3 3 3 3 3 3 3 
3 3 3 3 3 3 3 3 3 
3 3 3 3 3 3 3 3 3 
3 3 3 3 3 3 3 3 3 
3 3 3 3 3 3 3 3 3 
3 3 3 3 3 3 3 3 3 
3 3 3 3 3 3 3 3 3 
3 3 3 3 3 3 3 3 3 
3 3 3 3 3 3 3 3 3 
3 3 3 3 3 3 3 3 3 
3 3 3 3 3 3 3 3 3 
3 3 3 3 3 3 3 3 3 
3 3 3 3 3 3 3 3 3 
3 3 3 3 3 3 3 3 3 
3 3 3 3 4 4 4 4 4 
4 4 4 4 4 4 4 4 4 
4 4 4 4 4 4 4 4 4 
4 4 4 4 4 4 4 4 4 
4 4 4 4 4 4 4 4 4 
4 4 4 4 4 4 4 4 4 
4 4 4 4 4 4 4 4 4 
4 4 4 4 4 4 4 4 4 
4 4 4 4 4 4 4 4 4 
4 4 4 4 4 4 4 4 4 
4 4 4 4 4 4 4 4 4 
4 4 4 4 4 4 4 4 4 
4 4 4 4 4 4 4 4 4 
4 4 4 4 4 4 4 4 4 
4 4 4 4 4 4 4 4 4 
4 4 4 4 4 4 4 4 4 
4 4 4 4 4 4 4 4 4 
4 4 4 4 4 4 4 4 4 
4 4 4 4 4 4 4 4 4 
4 4 4 4 4 4 4 4 4 
4 4 4 4 4 4 4 4 4 
4 4 4 4 4 4 4 4 4 
4 4 4 4 4 4 4 4 4 
4 4 4 4 4 4 4 4 4 
4 4 4 4 4 4 4 4 4 
4 4 4 4 4 4 4 4 4 
4 4 4 4 4 4 4 4 4 
4 4 4 4 4 4 4 4 4 
4 4 4 4 4 4 4 4 4 
4 4 4 4 4 4 4 4 4 
4 4 4 4 4 4 4 4 4 
4 4 4 4 4 4 4 4 4 
4 4 4 4 4 4 4 4 4 
4 4 4 4 4 4 4 4 4 
4 4 4 4 4 4 4 4 4 
4 4 4 4 4 4 4 4 4 
4 4 4 4 4 4 4 4 4 
4 4 4 4 4 4 4 4 4 
4 4 4 4 4 4 4 4 4 
4 4 4 4 4 4 4 4 4 
4 4 4 4 4 4 4 4 4 
4 4 4 4 4 4 4 4 4 
4 4 4 4 4 4 4 4 4 
4 4 4 4 4 4 4 4 4 
4 4 4 4 4 4 4 4 4 
4 4 4 4 4 4 4 4 4 
4 4 4 4 4 4 4 4 4 
4 4 4 4 4 4 4 4 4 
4 4 4 4 4 4 4 4 4 
4 4 4 4 4 4 4 4 4 
4 4 4 4 4 4 4 4 4 
4 4 4 4 4 4 4 4 4 
4 4 4 4 4 4 4 4 4 
4 4 4 4 4 4 4 4 4 
4 4 4 4 4 4 4 4 4 
4 4 4 4 4 4 4 4 4 
4 4 4 4 4 4 4 4 4 
4 4 4 4 4 4 4 4 4 
4 4 4 4 4 4 4 4 4 
4 4 4 4 4 4 4 4 4 
4 4 4 4 4 4 4 4 4 
4 4 4 4 4 4 4 4 4 
4 4 4 4 4 4 4 4 4 
4 4 4 4 4 4 4 4 4 
4 4 4 4 4 4 4 4 4 
4 4 4 4 4 4 4 4 4 
4 4 4 4 4 4 4 4 4 
4 4 4 4 4 4 4 4 4 
4 4 4 4 4 4 4 4 4 
4 4 4 4 4 4 4 4 4 
4 4 4 4 4 4 4 4 4 
4 4 4 4 4 4 4 4 4 
4 4 4 4 4 4 4 4 4 
4 4 4 4 4 4 4 4 4 
4 4 4 4 4 4 4 4 4 
4 4 4 4 4 4 4 4 4 
4 4 4 4 4 4 4 4 4 
4 4 4 4 4 4 4 4 4 
4 4 4 4 4 4 4 4 4 
4 4 4 4 4 4 4 4 4 
4 4 4 4 5 5 5 5 5 
5 5 5 5 5 5 5 5 5 
5 5 5 5 5 5 5 5 5 
5 5 5 5 5 5 5 5 5 
5 5 5 5 5 5 5 5 5 
5 5 5 5 5 5 5 5 5 
5 5 5 5 5 5 5 5 5 
5 5 5 5 5 5 5 5 5 
5 5 5 5 5 5 5 5 5 
5 5 5 5 5 5 5 5 5 
5 5 5 5 5 5 5 5 5 
5 5 5 5 5 5 5 5 5 
5 5 5 5 5 5 5 5 5 
5 5 5 5 5 5 5 5 5 
5 5 5 5 5 5 5 5 5 
5 5 5 5 5 5 5 5 5 
5 5 5 5 5 5 5 5 5 
5 5 5 5 5 5 5 5 5 
5 5 5 5 5 5 5 5 5 
5 5 5 5 5 5 5 5 5 
5 5 5 5 5 5 5 5 5 
5 5 5 5 5 5 5 5 5 
5 5 5 5 5 5 5 5 5 
5 5 5 5 5 5 5 5 5 
5 5 5 5 5 5 5 5 5 
5 5 5 5 5 5 5 5 5 
5 5 5 5 5 5 5 5 5 
5 5 5 5 5 5 5 5 5 
5 5 5 5 5 5 5 5 5 
5 5 5 5 5 5 5 5 5 
5 5 5 5 5 5 5 5 5 
5 5 5 5 5 5 5 5 5 
5 5 5 5 5 5 5 5 5 
5 5 5 5 5 5 5 5 5 
5 5 5 5 5 5 5 5 5 
5 5 5 5 5 5 5 5 5 
5 5 5 5 5 5 5 5 5 
5 5 5 5 5 5 5 5 5 
5 5 5 5 5 5 5 5 5 
5 5 5 5 5 5 5 5 5 
5 5 5 5 5 5 5 5 5 
5 5 5 5 5 5 5 5 5 
5 5 5 5 5 5 5 5 5 
5 5 5 5 5 5 5 5 5 
5 5 5 5 5 5 5 5 5 
5 5 5 5 5 5 5 5 5 
5 5 5 5 5 5 5 5 5 
5 5 5 5 5 5 5 5 5 
5 5 5 5 5 5 5 5 5 
5 5 5 5 5 5 5 5 5 
5 5 5 5 5 5 5 5 5 
5 5 5 5 5 5 5 5 5 
5 5 5 5 5 5 5 5 5 
5 5 5 5 5 5 5 5 5 
5 5 5 5 5 5 5 5 5 
5 5 5 5 5 5 5 5 5 
5 5 5 5 5 5 5 5 5 
5 5 5 5 5 5 5 5 5 
5 5 5 5 5 5 5 5 5 
5 5 5 5 5 5 5 5 5 
5 5 5 5 5 5 5 5 5 
5 5 5 5 5 5 5 5 5 
5 5 5 5 5 5 5 5 5 
5 5 5 5 5 5 5 5 5 
5 5 5 5 5 5 5 5 5 
5 5 5 5 5 5 5 5 5 
5 5 5 5 5 5 5 5 5 
5 5 5 5 5 5 5 5 5 
5 5 5 5 5 5 5 5 5 
5 5 5 5 5 5 5 5 5 
5 5 5 5 5 5 5 5 5 
5 5 5 5 5 5 5 5 5 
5 5 5 5 5 5 5 5 5 
5 5 5 5 5 5 5 5 5 
5 5 5 5 5 5 5 5 5 
5 5 5 5 5 5 5 5 5 
5 5 5 5 5 5 5 5 5 
5 5 5 5 5 5 5 5 5 
5 5 5 5 5 5 5 5 5 
5 5 5 5 5 5 5 5 5 
5 5 5 5 
POINT_DATA 1890
NORMALS Normals float
0 0 1 0 0 -1 0.164595 0 0.986361 
0.324699 0 0.945817 0.475947 0 0.879474 0.614213 0 0.789141 
0.735724 0 0.677282 0.837166 0 0.546948 0.915773 0 0.401695 
0.9694 0 0.245485 0.996584 0 0.0825793 0.996584 0 -0.0825794 
0.9694 0 -0.245486 0.915773 0 -0.401695 0.837166 0 -0.546948 
0.735724 0 -0.677282 0.614213 0 -0.789141 0.475947 0 -0.879474 
0.324699 0 -0.945817 0.164595 0 -0.986361 0.156539 0.0508625 0.986361 
0.308808 0.100338 0.945817 0.452653 0.147076 0.879474 0.584151 0.189802 0.789141 
0.699715 0.227351 0.677282 0.796193 0.258699 0.546948 0.870952 0.28299 0.401695 
0.921954 0.299561 0.245485 0.947808 0.307962 0.0825793 0.947808 0.307962 -0.0825794 
0.921954 0.299561 -0.245486 0.870952 0.28299 -0.401695 0.796193 0.258699 -0.546948 
0.699715 0.227351 -0.677282 0.584151 0.189802 -0.789141 0.452653 0.147076 -0.879474 
0.308807 0.100338 -0.945817 0.156539 0.0508625 -0.986361 0.13316 0.0967463 0.986361 
0.262687 0.190854 0.945817 0.38505 0.279755 0.879474 0.496909 0.361025 0.789141 
0.595213 0.432448 0.677282 0.677282 0.492074 0.546948 0.740876 0.538278 0.401695 
0.784261 0.569799 0.245485 0.806254 0.585778 0.0825793 0.806254 0.585778 -0.0825794 
0.784261 0.569799 -0.245486 0.740876 0.538278 -0.401695 0.677282 0.492074 -0.546948 
0.595213 0.432448 -0.677282 0.496908 0.361025 -0.789141 0.385049 0.279755 -0.879474 
0.262687 0.190854 -0.945817 0.13316 0.0967462 -0.986361 0.0967463 0.13316 0.986361 
0.190854 0.262687 0.945817 0.279755 0.38505 0.879474 0.361025 0.496909 0.789141 
0.432448 0.595213 0.677282 0.492074 0.677282 0.546948 0.538278 0.740876 0.401695 
0.569799 0.784261 0.245485 0.585778 0.806254 0.0825793 0.585778 0.806254 -0.0825794 
0.569799 0.784261 -0.245486 0.538278 0.740876 -0.401695 0.492074 0.677282 -0.546948 
0.432448 0.595213 -0.677282 0.361025 0.496908 -0.789141 0.279755 0.385049 -0.879474 
0.190854 0.262687 -0.945817 0.0967462 0.13316 -0.986361 0.0508625 0.156539 0.986361 
0.100338 0.308808 0.945817 0.147076 0.452653 0.879474 0.189802 0.584151 0.789141 
0.227351 0.699715 0.677282 0.258699 0.796193 0.546948 0.28299 0.870952 0.401695 
0.299561 0.921954 0.245485 0.307962 0.947808 0.0825793 0.307962 0.947808 -0.0825794 
0.299561 0.921954 -0.245486 0.282989 0.870952 -0.401695 0.258699 0.796193 -0.546948 
0.227351 0.699715 -0.677282 0.189802 0.584151 -0.789141 0.147076 0.452653 -0.879474 
0.100338 0.308807 -0.945817 0.0508625 0.156539 -0.986361 -7.19466e-09 0.164595 0.986361 
-1.41931e-08 0.324699 0.945817 -2.08043e-08 0.475947 0.879474 -2.68481e-08 0.614213 0.789141 
-3.21595e-08 0.735724 0.677282 -3.65937e-08 0.837166 0.546948 -4.00297e-08 0.915773 0.401695 
-4.23738e-08 0.9694 0.245485 -4.35621e-08 0.996584 0.0825793 -4.35621e-08 0.996584 -0.0825794 
-4.23738e-08 0.9694 -0.245486 -4.00297e-08 0.915773 -0.401695 -3.65937e-08 0.837166 -0.546948 
-3.21595e-08 0.735724 -0.677282 -2.68481e-08 0.614213 -0.789141 -2.08043e-08 0.475947 -0.879474 
-1.41931e-08 0.324699 -0.945817 -7.19465e-09 0.164595 -0.986361 -0.0508625 0.156539 0.986361 
-0.100338 0.308808 0.945817 -0.147076 0.452653 0.879474 -0.189802 0.584151 0.789141 
-0.227351 0.699715 0.677282 -0.258699 0.796193 0.546948 -0.28299 0.870952 0.401695 
-0.299561 0.921954 0.245485 -0.307962 0.947808 0.0825793 -0.307962 0.947808 -0.0825794 
-0.299561 0.921954 -0.245486 -0.28299 0.870952 -0.401695 -0.258699 0.796193 -0.546948 
-0.227351 0.699715 -0.677282 -0.189802 0.584151 -0.789141 -0.147076 0.452653 -0.879474 
-0.100338 0.308807 -0.945817 -0.0508625 0.156539 -0.986361 -0.0967463 0.13316 0.986361 
-0.190854 0.262687 0.945817 -0.279755 0.38505 0.879474 -0.361025 0.496909 0.789141 
-0.432448 0.595213 0.677282 -0.492074 0.677282 0.546948 -0.538278 0.740876 0.401695 
-0.569799 0.784261 0.245485 -0.585778 0.806254 0.0825793 -0.585778 0.806254 -0.0825794 
-0.569799 0.784261 -0.245486 -0.538278 0.740876 -0.401695 -0.492074 0.677282 -0.546948 
-0.432448 0.595213 -0.677282 -0.361025 0.496908 -0.789141 -0.279755 0.385049 -0.879474 
-0.190854 0.262687 -0.945817 -0.0967462 0.13316 -0.986361 -0.13316 0.0967463 0.986361 
-0.262687 0.190854 0.945817 -0.38505 0.279755 0.879474 -0.496909 0.361025 0.789141 
-0.595213 0.432448 0.677282 -0.677282 0.492074 0.546948 -0.740876 0.538278 0.401695 
-0.784261 0.569799 0.245485 -0.806254 0.585778 0.0825793 -0.806254 0.585778 -0.0825794 
-0.784261 0.569799 -0.245486 -0.740876 0.538278 -0.401695 -0.677282 0.492074 -0.546948 
-0.595213 0.432448 -0.677282 -0.496909 0.361025 -0.789141 -0.385049 0.279755 -0.879474 
-0.262687 0.190853 -0.945817 -0.13316 0.0967462 -0.986361 -0.156539 0.0508625 0.986361 
-0.308808 0.100338 0.945817 -0.452653 0.147076 0.879474 -0.584151 0.189802 0.789141 
-0.699715 0.227351 0.677282 -0.796193 0.258699 0.546948 -0.870952 0.282989 0.401695 
-0.921954 0.299561 0.245485 -0.947808 0.307961 0.0825793 -0.947808 0.307961 -0.0825794 
-0.921954 0.299561 -0.245486 -0.870952 0.282989 -0.401695 -0.796193 0.258699 -0.546948 
-0.699715 0.227351 -0.677282 -0.584151 0.189802 -0.789141 -0.452653 0.147076 -0.879474 
-0.308807 0.100338 -0.945817 -0.156539 0.0508625 -0.986361 -0.164595 -1.43893e-08 0.986361 
-0.324699 -2.83861e-08 0.945817 -0.475947 -4.16086e-08 0.879474 -0.614213 -5.36962e-08 0.789141 
-0.735724 -6.4319e-08 0.677282 -0.837166 -7.31874e-08 0.546948 -0.915773 -8.00595e-08 0.401695 
-0.9694 -8.47477e-08 0.245485 -0.996584 -8.71242e-08 0.0825793 -0.996584 -8.71242e-08 -0.0825794 
-0.9694 -8.47477e-08 -0.245486 -0.915773 -8.00595e-08 -0.401695 -0.837166 -7.31874e-08 -0.546948 
-0.735724 -6.4319e-08 -0.677282 -0.614213 -5.36962e-08 -0.789141 -0.475947 -4.16086e-08 -0.879474 
-0.324699 -2.83861e-08 -0.945817 -0.164595 -1.43893e-08 -0.986361 -0.156539 -0.0508625 0.986361 
-0.308808 -0.100338 0.945817 -0.452653 -0.147076 0.879474 -0.584151 -0.189802 0.789141 
-0.699715 -0.227351 0.677282 -0.796193 -0.258699 0.546948 -0.870952 -0.28299 0.401695 
-0.921954 -0.299561 0.245485 -0.947808 -0.307962 0.0825793 -0.947808 -0.307962 -0.0825794 
-0.921954 -0.299561 -0.245486 -0.870952 -0.28299 -0.401695 -0.796193 -0.258699 -0.546948 
-0.699715 -0.227351 -0.677282 -0.584151 -0.189802 -0.789141 -0.452653 -0.147076 -0.879474 
-0.308807 -0.100338 -0.945817 -0.156539 -0.0508625 -0.986361 -0.13316 -0.0967463 0.986361 
-0.262687 -0.190854 0.945817 -0.38505 -0.279755 0.879474 -0.496908 -0.361025 0.789141 
-0.595213 -0.432448 0.677282 -0.677282 -0.492074 0.546948 -0.740876 -0.538278 0.401695 
-0.784261 -0.569799 0.245485 -0.806254 -0.585778 0.0825793 -0.806254 -0.585778 -0.0825794 
-0.784261 -0.569799 -0.245486 -0.740876 -0.538278 -0.401695 -0.677282 -0.492074 -0.546948 
-0.595213 -0.432448 -0.677282 -0.496908 -0.361025 -0.789141 -0.385049 -0.279755 -0.879474 
-0.262687 -0.190854 -0.945817 -0.13316 -0.0967462 -0.986361 -0.0967463 -0.13316 0.986361 
-0.190854 -0.262687 0.945817 -0.279755 -0.38505 0.879474 -0.361025 -0.496909 0.789141 
-0.432448 -0.595213 0.677282 -0.492074 -0.677282 0.546948 -0.538278 -0.740876 0.401695 
-0.569799 -0.784261 0.245485 -0.585778 -0.806254 0.0825793 -0.585778 -0.806254 -0.0825794 
-0.569799 -0.784261 -0.245486 -0.538278 -0.740876 -0.401695 -0.492074 -0.677282 -0.546948 
-0.432448 -0.595213 -0.677282 -0.361025 -0.496909 -0.789141 -0.279755 -0.38505 -0.879474 
-0.190853 -0.262687 -0.945817 -0.0967462 -0.13316 -0.986361 -0.0508625 -0.156539 0.986361 
-0.100338 -0.308808 0.945817 -0.147076 -0.452653 0.879474 -0.189802 -0.584151 0.789141 
-0.227351 -0.699715 0.677282 -0.258699 -0.796193 0.546948 -0.282989 -0.870952 0.401695 
-0.299561 -0.921955 0.245485 -0.307961 -0.947808 0.0825793 -0.307961 -0.947808 -0.0825794 
-0.299561 -0.921954 -0.245486 -0.282989 -0.870952 -0.401695 -0.258699 -0.796193 -0.546948 
-0.227351 -0.699715 -0.677282 -0.189802 -0.584151 -0.789141 -0.147076 -0.452653 -0.879474 
-0.100338 -0.308807 -0.945817 -0.0508625 -0.156539 -0.986361 2.1584e-08 -0.164595 0.986361 
4.25792e-08 -0.324699 0.945817 6.2413e-08 -0.475947 0.879474 8.05443e-08 -0.614213 0.789141 
9.64785e-08 -0.735724 0.677282 1.09781e-07 -0.837166 0.546948 1.20089e-07 -0.915773 0.401695 
1.27121e-07 -0.9694 0.245485 1.30686e-07 -0.996584 0.0825793 1.30686e-07 -0.996584 -0.0825794 
1.27121e-07 -0.9694 -0.245486 1.20089e-07 -0.915773 -0.401695 1.09781e-07 -0.837166 -0.546948 
9.64785e-08 -0.735724 -0.677282 8.05443e-08 -0.614213 -0.789141 6.2413e-08 -0.475947 -0.879474 
4.25792e-08 -0.324699 -0.945817 2.1584e-08 -0.164595 -0.986361 0.0508626 -0.156539 0.986361 
0.100338 -0.308808 0.945817 0.147076 -0.452653 0.879474 0.189802 -0.584151 0.789141 
0.227351 -0.699715 0.677282 0.258699 -0.796193 0.546948 0.28299 -0.870952 0.401695 
0.299561 -0.921954 0.245485 0.307962 -0.947808 0.0825793 0.307962 -0.947808 -0.0825794 
0.299561 -0.921954 -0.245486 0.28299 -0.870952 -0.401695 0.258699 -0.796193 -0.546948 
0.227351 -0.699715 -0.677282 0.189802 -0.584151 -0.789141 0.147076 -0.452653 -0.879474 
0.100338 -0.308807 -0.945817 0.0508625 -0.156539 -0.986361 0.0967463 -0.13316 0.986361 
0.190854 -0.262687 0.945817 0.279755 -0.385049 0.879474 0.361025 -0.496908 0.789141 
0.432448 -0.595213 0.677282 0.492074 -0.677282 0.546948 0.538278 -0.740876 0.401695 
0.569799 -0.784261 0.245485 0.585778 -0.806254 0.0825793 0.585778 -0.806254 -0.0825794 
0.569799 -0.784261 -0.245486 0.538278 -0.740876 -0.401695 0.492074 -0.677282 -0.546948 
0.432448 -0.595213 -0.677282 0.361025 -0.496908 -0.789141 0.279755 -0.385049 -0.879474 
0.190854 -0.262687 -0.945817 0.0967462 -0.13316 -0.986361 0.13316 -0.0967463 0.986361 
0.262687 -0.190854 0.945817 0.38505 -0.279755 0.879474 0.496909 -0.361025 0.789141 
0.595213 -0.432448 0.677282 0.677282 -0.492074 0.546948 0.740876 -0.538278 0.401695 
0.784261 -0.569799 0.245485 0.806254 -0.585778 0.0825793 0.806254 -0.585778 -0.0825794 
0.784261 -0.569799 -0.245486 0.740876 -0.538278 -0.401695 0.677282 -0.492074 -0.546948 
0.595213 -0.432448 -0.677282 0.496909 -0.361025 -0.789141 0.38505 -0.279755 -0.879474 
0.262687 -0.190853 -0.945817 0.13316 -0.0967462 -0.986361 0.156539 -0.0508625 0.986361 
0.308808 -0.100338 0.945817 0.452653 -0.147076 0.879474 0.584151 -0.189802 0.789141 
0.699715 -0.227351 0.677282 0.796193 -0.258699 0.546948 0.870952 -0.282989 0.401695 
0.921955 -0.299561 0.245485 0.947808 -0.307961 0.0825793 0.947808 -0.307961 -0.0825794 
0.921954 -0.299561 -0.245486 0.870952 -0.282989 -0.401695 0.796193 -0.258699 -0.546948 
0.699715 -0.227351 -0.677282 0.584151 -0.189802 -0.789141 0.452653 -0.147076 -0.879474 
0.308807 -0.100338 -0.945817 0.156539 -0.0508625 -0.986361 0 0 1 
0 0 -1 0.164595 0 0.986361 0.324699 0 0.945817 
0.475947 0 0.879474 0.614213 0 0.789141 0.735724 0 0.677282 
0.837166 0 0.546948 0.915773 0 0.401695 0.9694 0 0.245485 
0.996584 0 0.0825793 0.996584 0 -0.0825794 0.9694 0 -0.245486 
0.915773 0 -0.401695 0.837166 0 -0.546948 0.735724 0 -0.677282 
0.614213 0 -0.789141 0.475947 0 -0.879474 0.324699 0 -0.945817 
0.164595 0 -0.986361 0.156539 0.0508625 0.986361 0.308808 0.100338 0.945817 
0.452653 0.147076 0.879474 0.584151 0.189802 0.789141 0.699715 0.227351 0.677282 
0.796193 0.258699 0.546948 0.870952 0.28299 0.401695 0.921954 0.299561 0.245485 
0.947808 0.307962 0.0825793 0.947808 0.307962 -0.0825794 0.921954 0.299561 -0.245486 
0.870952 0.28299 -0.401695 0.796193 0.258699 -0.546948 0.699715 0.227351 -0.677282 
0.584151 0.189802 -0.789141 0.452653 0.147076 -0.879474 0.308807 0.100338 -0.945817 
0.156539 0.0508625 -0.986361 0.13316 0.0967463 0.986361 0.262687 0.190854 0.945817 
0.38505 0.279755 0.879474 0.496909 0.361025 0.789141 0.595213 0.432448 0.677282 
0.677282 0.492074 0.546948 0.740876 0.538278 0.401695 0.784261 0.569799 0.245485 
0.806254 0.585778 0.0825793 0.806254 0.585778 -0.0825794 0.784261 0.569799 -0.245486 
0.740876 0.538278 -0.401695 0.677282 0.492074 -0.546948 0.595213 0.432448 -0.677282 
0.496908 0.361025 -0.789141 0.385049 0.279755 -0.879474 0.262687 0.190854 -0.945817 
0.13316 0.0967462 -0.986361 0.0967463 0.13316 0.986361 0.190854 0.262687 0.945817 
0.279755 0.38505 0.879474 0.361025 0.496909 0.789141 0.432448 0.595213 0.677282 
0.492074 0.677282 0.546948 0.538278 0.740876 0.401695 0.569799 0.784261 0.245485 
0.585778 0.806254 0.0825793 0.585778 0.806254 -0.0825794 0.569799 0.784261 -0.245486 
0.538278 0.740876 -0.401695 0.492074 0.677282 -0.546948 0.432448 0.595213 -0.677282 