# vtk DataFile Version 3.0
vtk output
ASCII
DATASET POLYDATA
POINTS 104 float
-10 -15 -10 -10 -15 10 -10 15 -10 
-10 15 10 10 -15 -10 10 -15 10 
10 15 -10 10 15 10 -10 -15 -10 
-10 -15 10 10 -15 -10 10 -15 10 
-10 15 -10 -10 15 10 10 15 -10 
10 15 10 -10 -15 -10 10 -15 -10 
-10 15 -10 10 15 -10 -10 -15 10 
10 -15 10 -10 15 10 10 15 10 
3 -7.5 2.12132 3 7.5 2.12132 2.85317 -7.5 3.04837 
2.85317 7.5 3.04837 2.42705 -7.5 3.88468 2.42705 7.5 3.88468 
1.76336 -7.5 4.54837 1.76336 7.5 4.54837 0.927051 -7.5 4.97449 
0.927051 7.5 4.97449 -6.1531e-10 -7.5 5.12132 -6.1531e-10 7.5 5.12132 
-0.927051 -7.5 4.97449 -0.927051 7.5 4.97449 -1.76336 -7.5 4.54837 
-1.76336 7.5 4.54837 -2.42705 -7.5 3.88468 -2.42705 7.5 3.88468 
-2.85317 -7.5 3.04837 -2.85317 7.5 3.04837 -3 -7.5 2.12132 
-3 7.5 2.12132 -2.85317 -7.5 1.19427 -2.85317 7.5 1.19427 
-2.42705 -7.5 0.357965 -2.42705 7.5 0.357965 -1.76336 -7.5 -0.305731 
-1.76336 7.5 -0.305731 -0.927051 -7.5 -0.731849 -0.927051 7.5 -0.731849 
1.84593e-09 -7.5 -0.87868 1.84593e-09 7.5 -0.87868 0.927051 -7.5 -0.731849 
0.927051 7.5 -0.731849 1.76336 -7.5 -0.305731 1.76336 7.5 -0.305731 
2.42705 -7.5 0.357965 2.42705 7.5 0.357965 2.85317 -7.5 1.19427 
2.85317 7.5 1.19427 3 -7.5 2.12132 2.85317 -7.5 3.04837 
2.42705 -7.5 3.88468 1.76336 -7.5 4.54837 0.927051 -7.5 4.97449 
-6.1531e-10 -7.5 5.12132 -0.927051 -7.5 4.97449 -1.76336 -7.5 4.54837 
-2.42705 -7.5 3.88468 -2.85317 -7.5 3.04837 -3 -7.5 2.12132 
-2.85317 -7.5 1.19427 -2.42705 -7.5 0.357965 -1.76336 -7.5 -0.305731 
-0.927051 -7.5 -0.731849 1.84593e-09 -7.5 -0.87868 0.927051 -7.5 -0.731849 
1.76336 -7.5 -0.305731 2.42705 -7.5 0.357965 2.85317 -7.5 1.19427 
2.85317 7.5 1.19427 2.42705 7.5 0.357965 1.76336 7.5 -0.305731 
0.927051 7.5 -0.731849 1.84593e-09 7.5 -0.87868 -0.927051 7.5 -0.731849 
-1.76336 7.5 -0.305731 -2.42705 7.5 0.357965 -2.85317 7.5 1.19427 
-3 7.5 2.12132 -2.85317 7.5 3.04837 -2.42705 7.5 3.88468 
-1.76336 7.5 4.54837 -0.927051 7.5 4.97449 -6.1531e-10 7.5 5.12132 
0.927051 7.5 4.97449 1.76336 7.5 4.54837 2.42705 7.5 3.88468 
2.85317 7.5 3.04837 3 7.5 2.12132 
POLYGONS 28 172
4 0 1 3 2 
4 4 6 7 5 
4 8 10 11 9 
4 12 13 15 14 
4 16 18 19 17 
4 20 21 23 22 
4 24 25 27 26 
4 26 27 29 28 
4 28 29 31 30 
4 30 31 33 32 
4 32 33 35 34 
4 34 35 37 36 
4 36 37 39 38 
4 38 39 41 40 
4 40 41 43 42 
4 42 43 45 44 
4 44 45 47 46 
4 46 47 49 48 
4 48 49 51 50 
4 50 51 53 52 
4 52 53 55 54 
4 54 55 57 56 
4 56 57 59 58 
4 58 59 61 60 
4 60 61 63 62 
4 62 63 25 24 
20 64 65 66 67 68 69 70 71 72 73 74 75 76 77 78 79 80 81 82 83 
20 84 85 86 87 88 89 90 91 92 93 94 95 96 97 98 99 100 101 102 103 

CELL_DATA 28
SCALARS LNID int
LOOKUP_TABLE default
0 0 0 0 0 0 1 1 1 
1 1 1 1 1 1 1 1 1 
1 1 1 1 1 1 1 1 1 
1 
POINT_DATA 104
NORMALS Normals float
-1 0 0 -1 0 0 -1 0 0 
-1 0 0 1 0 0 1 0 0 
1 0 0 1 0 0 0 -1 0 
0 -1 0 0 -1 0 0 -1 0 
0 1 0 0 1 0 0 1 0 
0 1 0 0 0 -1 0 0 -1 
0 0 -1 0 0 -1 0 0 1 
0 0 1 0 0 1 0 0 1 
1 0 0 1 0 0 0.951057 8.75374e-17 0.309017 
0.951057 8.75374e-17 0.309017 0.809017 1.66506e-16 0.587785 0.809017 1.66506e-16 0.587785 
0.587785 2.29176e-16 0.809017 0.587785 2.29176e-16 0.809017 0.309017 2.69412e-16 0.951057 
0.309017 2.69412e-16 0.951057 -2.05103e-10 2.83277e-16 1 -2.05103e-10 2.83277e-16 1 
-0.309017 2.69412e-16 0.951057 -0.309017 2.69412e-16 0.951057 -0.587785 2.29176e-16 0.809017 
-0.587785 2.29176e-16 0.809017 -0.809017 1.66506e-16 0.587785 -0.809017 1.66506e-16 0.587785 
-0.951057 8.75374e-17 0.309017 -0.951057 8.75374e-17 0.309017 -1 -1.16202e-25 -4.10207e-10 
-1 -1.16202e-25 -4.10207e-10 -0.951057 -8.75374e-17 -0.309017 -0.951057 -8.75374e-17 -0.309017 
-0.809017 -1.66506e-16 -0.587785 -0.809017 -1.66506e-16 -0.587785 -0.587785 -2.29176e-16 -0.809017 
-0.587785 -2.29176e-16 -0.809017 -0.309017 -2.69412e-16 -0.951057 -0.309017 -2.69412e-16 -0.951057 
6.1531e-10 -2.83277e-16 -1 6.1531e-10 -2.83277e-16 -1 0.309017 -2.69412e-16 -0.951057 
0.309017 -2.69412e-16 -0.951057 0.587785 -2.29176e-16 -0.809017 0.587785 -2.29176e-16 -0.809017 
0.809017 -1.66506e-16 -0.587785 0.809017 -1.66506e-16 -0.587785 0.951057 -8.75374e-17 -0.309017 
0.951057 -8.75374e-17 -0.309017 0 -1 2.83277e-16 0 -1 2.83277e-16 
0 -1 2.83277e-16 0 -1 2.83277e-16 0 -1 2.83277e-16 
0 -1 2.83277e-16 0 -1 2.83277e-16 0 -1 2.83277e-16 
0 -1 2.83277e-16 0 -1 2.83277e-16 0 -1 2.83277e-16 
0 -1 2.83277e-16 0 -1 2.83277e-16 0 -1 2.83277e-16 
0 -1 2.83277e-16 0 -1 2.83277e-16 0 -1 2.83277e-16 
0 -1 2.83277e-16 0 -1 2.83277e-16 0 -1 2.83277e-16 
0 1 -2.83277e-16 0 1 -2.83277e-16 0 1 -2.83277e-16 
0 1 -2.83277e-16 0 1 -2.83277e-16 0 1 -2.83277e-16 
0 1 -2.83277e-16 0 1 -2.83277e-16 0 1 -2.83277e-16 
0 1 -2.83277e-16 0 1 -2.83277e-16 0 1 -2.83277e-16 
0 1 -2.83277e-16 0 1 -2.83277e-16 0 1 -2.83277e-16 
0 1 -2.83277e-16 0 1 -2.83277e-16 0 1 -2.83277e-16 
0 1 -2.83277e-16 0 1 -2.83277e-16 
TEXTURE_COORDINATES TCoords 2 float
-9.5 -14.5 10.5 -14.5 -9.5 15.5 10.5 15.5 9.5 
-14.5 -10.5 -14.5 9.5 15.5 -10.5 15.5 9.5 9.5 
9.5 -10.5 -10.5 9.5 -10.5 -10.5 -9.5 9.5 -9.5 
-10.5 10.5 9.5 10.5 -10.5 9.5 -14.5 -10.5 -14.5 
9.5 15.5 -10.5 15.5 -9.5 -14.5 10.5 -14.5 -9.5 
15.5 10.5 15.5 1 0 1 1 0.9 0 
0.9 1 0.8 0 0.8 1 0.7 0 0.7 
1 0.6 0 0.6 1 0.5 0 0.5 1 
0.4 0 0.4 1 0.3 0 0.3 1 0.2 
0 0.2 1 0.1 0 0.1 1 0 0 
0 1 0.1 0 0.1 1 0.2 0 0.2 
1 0.3 0 0.3 1 0.4 0 0.4 1 
0.5 0 0.5 1 0.6 0 0.6 1 0.7 
0 0.7 1 0.8 0 0.8 1 0.9 0 
0.9 1 3 -0 2.85317 -0.927051 2.42705 -1.76336 1.76336 
-2.42705 0.927051 -2.85317 -6.1531e-10 -3 -0.927051 -2.85317 -1.76336 -2.42705 
-2.42705 -1.76336 -2.85317 -0.927051 -3 1.23062e-09 -2.85317 0.927051 -2.42705 
1.76336 -1.76336 2.42705 -0.927051 2.85317 1.84593e-09 3 0.927051 2.85317 
1.76336 2.42705 2.42705 1.76336 2.85317 0.927051 2.85317 0.927051 2.42705 
1.76336 1.76336 2.42705 0.927051 2.85317 1.84593e-09 3 -0.927051 2.85317 
-1.76336 2.42705 -2.42705 1.76336 -2.85317 0.927051 -3 1.23062e-09 -2.85317 
-0.927051 -2.42705 -1.76336 -1.76336 -2.42705 -0.927051 -2.85317 -6.1531e-10 -3 
0.927051 -2.85317 1.76336 -2.42705 2.42705 -1.76336 2.85317 -0.927051 3 
-0 
