# vtk DataFile Version 3.0
vtk output
ASCII
DATASET POLYDATA
POINTS 24 float
-10 -15 -10 -10 -15 10 -10 15 -10 
-10 15 10 10 -15 -10 10 -15 10 
10 15 -10 10 15 10 -10 -15 -10 
-10 -15 10 10 -15 -10 10 -15 10 
-10 15 -10 -10 15 10 10 15 -10 
10 15 10 -10 -15 -10 10 -15 -10 
-10 15 -10 10 15 -10 -10 -15 10 
10 -15 10 -10 15 10 10 15 10 

POLYGONS 6 30
4 0 1 3 2 
4 4 6 7 5 
4 8 10 11 9 
4 12 13 15 14 
4 16 18 19 17 
4 20 21 23 22 

CELL_DATA 6
SCALARS INID int
LOOKUP_TABLE default
0 0 0 0 0 0 
POINT_DATA 24
NORMALS Normals float
-1 0 0 -1 0 0 -1 0 0 
-1 0 0 1 0 0 1 0 0 
1 0 0 1 0 0 0 -1 0 
0 -1 0 0 -1 0 0 -1 0 
0 1 0 0 1 0 0 1 0 
0 1 0 0 0 -1 0 0 -1 
0 0 -1 0 0 -1 0 0 1 
0 0 1 0 0 1 0 0 1 

TEXTURE_COORDINATES TCoords 2 float
-9.5 -14.5 10.5 -14.5 -9.5 15.5 10.5 15.5 9.5 
-14.5 -10.5 -14.5 9.5 15.5 -10.5 15.5 9.5 9.5 
9.5 -10.5 -10.5 9.5 -10.5 -10.5 -9.5 9.5 -9.5 
-10.5 10.5 9.5 10.5 -10.5 9.5 -14.5 -10.5 -14.5 
9.5 15.5 -10.5 15.5 -9.5 -14.5 10.5 -14.5 -9.5 
15.5 10.5 15.5 
