# vtk DataFile Version 3.0
vtk output
ASCII
DATASET POLYDATA
POINTS 48 float
-10 -15 -10 -10 -15 10 -10 15 -10 
-10 15 10 10 -15 -10 10 -15 10 
10 15 -10 10 15 10 -10 -15 -10 
-10 -15 10 10 -15 -10 10 -15 10 
-10 15 -10 -10 15 10 10 15 -10 
10 15 10 -10 -15 -10 10 -15 -10 
-10 15 -10 10 15 -10 -10 -15 10 
10 -15 10 -10 15 10 10 15 10 
-13.4904 3.36603 -1.26795 -12.4904 1.63397 -4.73205 -4.83013 -11.634 8.73205 
-3.83013 -13.366 5.26795 3.83013 13.366 -1.26795 4.83013 11.634 -4.73205 
12.4904 -1.63397 8.73205 13.4904 -3.36603 5.26795 -13.4904 3.36603 -1.26795 
-12.4904 1.63397 -4.73205 3.83013 13.366 -1.26795 4.83013 11.634 -4.73205 
-4.83013 -11.634 8.73205 -3.83013 -13.366 5.26795 12.4904 -1.63397 8.73205 
13.4904 -3.36603 5.26795 -13.4904 3.36603 -1.26795 3.83013 13.366 -1.26795 
-4.83013 -11.634 8.73205 12.4904 -1.63397 8.73205 -12.4904 1.63397 -4.73205 
4.83013 11.634 -4.73205 -3.83013 -13.366 5.26795 13.4904 -3.36603 5.26795 

POLYGONS 12 60
4 0 1 3 2 
4 4 6 7 5 
4 8 10 11 9 
4 12 13 15 14 
4 16 18 19 17 
4 20 21 23 22 
4 24 25 27 26 
4 28 30 31 29 
4 32 34 35 33 
4 36 37 39 38 
4 40 42 43 41 
4 44 45 47 46 

CELL_DATA 12
SCALARS LNID int
LOOKUP_TABLE default
0 0 0 0 0 0 1 1 1 
1 1 1 
POINT_DATA 48
NORMALS normals float
-1 0 0 -1 0 0 -1 0 0 
-1 0 0 1 0 0 1 0 0 
1 0 0 1 0 0 0 -1 0 
0 -1 0 0 -1 0 0 -1 0 
0 1 0 0 1 0 0 1 0 
0 1 0 0 0 -1 0 0 -1 
0 0 -1 0 0 -1 0 0 1 
0 0 1 0 0 1 0 0 1 
-0.866025 -0.5 0 -0.866025 -0.5 0 -0.866025 -0.5 0 
-0.866025 -0.5 0 0.866025 0.5 0 0.866025 0.5 0 
0.866025 0.5 0 0.866025 0.5 0 -0.433013 0.75 -0.5 
-0.433013 0.75 -0.5 -0.433013 0.75 -0.5 -0.433013 0.75 -0.5 
0.433013 -0.75 0.5 0.433013 -0.75 0.5 0.433013 -0.75 0.5 
0.433013 -0.75 0.5 -0.25 0.433013 0.866025 -0.25 0.433013 0.866025 
-0.25 0.433013 0.866025 -0.25 0.433013 0.866025 0.25 -0.433013 -0.866025 
0.25 -0.433013 -0.866025 0.25 -0.433013 -0.866025 0.25 -0.433013 -0.866025 

TEXTURE_COORDINATES TCoords 2 float
-9.5 -14.5 10.5 -14.5 -9.5 15.5 10.5 15.5 9.5 
-14.5 -10.5 -14.5 9.5 15.5 -10.5 15.5 9.5 9.5 
9.5 -10.5 -10.5 9.5 -10.5 -10.5 -9.5 9.5 -9.5 
-10.5 10.5 9.5 10.5 -10.5 9.5 -14.5 -10.5 -14.5 
9.5 15.5 -10.5 15.5 -9.5 -14.5 10.5 -14.5 -9.5 
15.5 10.5 15.5 -1.5 -9.5 2.5 -9.5 -1.5 10.5 
2.5 10.5 1.5 -9.5 -2.5 -9.5 1.5 10.5 -2.5 
10.5 9.5 1.5 9.5 -2.5 -10.5 1.5 -10.5 -2.5 
-9.5 1.5 -9.5 -2.5 10.5 1.5 10.5 -2.5 9.5 
-9.5 -10.5 -9.5 9.5 10.5 -10.5 10.5 -9.5 -9.5 
10.5 -9.5 -9.5 10.5 10.5 10.5 
